/*--------------------------------*- C++ -*----------------------------------*\
  =========                 |
  \\      /  F ield         | OpenFOAM: The Open Source CFD Toolbox
   \\    /   O peration     | Website:  https://openfoam.org
    \\  /    A nd           | Version:  7
     \\/     M anipulation  |
\*---------------------------------------------------------------------------*/
FoamFile
{
    version     2.0;
    format      ascii;
    class       volVectorField;
    location    "2.8";
    object      U;
}
// * * * * * * * * * * * * * * * * * * * * * * * * * * * * * * * * * * * * * //

dimensions      [0 1 -1 0 0 0 0];

internalField   nonuniform List<vector> 
73728
(
(3 7.10402e-19 0)
(3 5.62758e-17 0)
(3 2.30031e-17 0)
(3 -5.34902e-17 0)
(3 -9.40966e-17 0)
(3 1.89083e-16 0)
(3 4.34652e-16 0)
(3 7.48133e-16 0)
(3 1.1601e-15 0)
(3 1.20987e-15 0)
(3 7.81941e-16 0)
(3 8.89071e-16 0)
(3 1.22044e-15 0)
(3 1.92518e-15 0)
(3 1.65723e-15 0)
(3 1.6867e-15 0)
(3 1.5495e-15 0)
(3 1.34431e-15 0)
(3 1.38867e-15 0)
(3 1.71238e-15 0)
(3 1.83169e-15 0)
(3 1.43148e-15 0)
(3 1.36422e-15 0)
(3 1.24748e-15 0)
(3 2.1986e-16 0)
(3 -6.82105e-17 0)
(3 -2.02108e-16 0)
(3 -3.68059e-16 0)
(3 -2.32847e-16 0)
(3 3.9106e-16 0)
(3 4.43808e-16 0)
(3 2.17551e-16 0)
(3 1.21256e-16 0)
(3 -1.82476e-16 0)
(3 -6.86235e-16 0)
(3 -7.91501e-16 0)
(3 -9.6064e-16 0)
(3 -3.36027e-16 0)
(3 -6.75513e-16 0)
(3 -3.92938e-16 0)
(3 -1.53051e-16 0)
(3 5.93619e-16 0)
(3 -3.5994e-16 0)
(3 -1.21046e-15 0)
(3 -1.19612e-15 0)
(3 -1.47716e-15 0)
(3 -1.62755e-15 0)
(3 -1.90849e-15 0)
(3 -1.93773e-15 0)
(3 -1.61003e-15 0)
(3 -7.90047e-16 0)
(3 -2.48929e-16 0)
(3 1.188e-15 0)
(3 2.79893e-15 0)
(3 2.79235e-15 0)
(3 2.67372e-15 0)
(3 3.60441e-15 0)
(3 3.60056e-15 0)
(3 3.09761e-15 0)
(3 1.97821e-15 0)
(3 1.11893e-15 0)
(3 -1.79964e-16 0)
(3 -6.74466e-16 0)
(3 -9.72026e-16 0)
(3 -6.73185e-16 0)
(3 -5.31609e-16 0)
(3 -1.44734e-16 0)
(3 2.39142e-16 0)
(3 1.62903e-15 0)
(3 1.65748e-15 0)
(3 1.26205e-15 0)
(3 7.83602e-16 0)
(3 -2.43095e-16 0)
(3 -4.41821e-16 0)
(3 -4.4459e-16 0)
(3 -3.60633e-17 0)
(3 -4.67294e-16 0)
(3 -1.03279e-15 0)
(3 -5.08613e-16 0)
(3 1.54074e-17 0)
(3 4.65778e-16 0)
(3 7.57357e-16 0)
(3 8.9541e-16 0)
(3 4.68971e-16 0)
(3 4.32034e-16 0)
(3 1.17796e-15 0)
(3 1.306e-15 0)
(3 1.46376e-15 0)
(3 1.42304e-15 0)
(3 5.40482e-16 0)
(3 -4.14733e-16 0)
(3 -7.80938e-16 0)
(3 4.81205e-16 0)
(3 -9.26738e-16 0)
(1.17788 0.0591866 0)
(0.516633 0.0527819 0)
(3 -4.86424e-18 0)
(3 2.15538e-16 0)
(3 4.13106e-16 0)
(3 1.85379e-16 0)
(3 6.06065e-17 0)
(3 9.70655e-17 0)
(3 6.85002e-16 0)
(3 1.55631e-15 0)
(3 2.5833e-15 0)
(3 2.59982e-15 0)
(3 1.24469e-15 0)
(3 1.50946e-15 0)
(3 2.25274e-15 0)
(3 3.21549e-15 0)
(3 3.4836e-15 0)
(3 2.90403e-15 0)
(3 1.94439e-15 0)
(3 1.99773e-15 0)
(3 1.71859e-15 0)
(3 9.50861e-16 0)
(3 1.19089e-15 0)
(3 1.5842e-15 0)
(3 1.76249e-15 0)
(3 1.49778e-15 0)
(3 8.8971e-16 0)
(3 8.86355e-16 0)
(3 8.39739e-16 0)
(3 3.48709e-16 0)
(3 5.16367e-16 0)
(3 9.92142e-16 0)
(3 1.14743e-15 0)
(3 1.15999e-15 0)
(3 9.33683e-16 0)
(3 6.01649e-16 0)
(3 -6.31898e-16 0)
(3 -9.93878e-16 0)
(3 -9.29806e-16 0)
(3 6.08926e-17 0)
(3 7.59617e-16 0)
(3 9.26757e-16 0)
(3 1.0028e-15 0)
(3 9.28887e-16 0)
(3 2.28723e-16 0)
(3 -8.68277e-16 0)
(3 -2.01105e-15 0)
(3 -2.30465e-15 0)
(3 -1.70478e-15 0)
(3 -2.1964e-15 0)
(3 -1.91296e-15 0)
(3 -1.81839e-15 0)
(3 -1.09567e-15 0)
(3 -1.02187e-16 0)
(3 5.95188e-16 0)
(3 3.13766e-15 0)
(3 3.9071e-15 0)
(3 3.94496e-15 0)
(3 4.77335e-15 0)
(3 4.19478e-15 0)
(3 4.06277e-15 0)
(3 3.31677e-15 0)
(3 1.82793e-15 0)
(3 4.47198e-16 0)
(3 -4.14434e-16 0)
(3 -1.5581e-15 0)
(3 -2.18515e-15 0)
(3 -1.69887e-15 0)
(3 -3.75084e-16 0)
(3 1.04355e-15 0)
(3 2.94933e-15 0)
(3 2.64075e-15 0)
(3 9.8768e-16 0)
(3 -2.02964e-16 0)
(3 -9.09076e-16 0)
(3 -9.24835e-16 0)
(3 -1.1597e-15 0)
(3 -6.67681e-16 0)
(3 1.85918e-16 0)
(3 -1.5353e-17 0)
(3 5.23628e-16 0)
(3 8.10616e-16 0)
(3 1.15035e-15 0)
(3 1.43278e-17 0)
(3 -2.91459e-16 0)
(3 2.19897e-16 0)
(3 8.79795e-16 0)
(3 1.56577e-15 0)
(3 1.42596e-15 0)
(3 1.30106e-15 0)
(3 1.02505e-15 0)
(3 -7.08744e-17 0)
(3 -4.38187e-16 0)
(3 -7.32226e-16 0)
(3 1.79475e-15 0)
(3 -3.08223e-15 0)
(1.39623 0.223564 0)
(0.592771 0.207644 0)
(3 8.12251e-18 0)
(3 2.13542e-16 0)
(3 2.16349e-16 0)
(3 4.86181e-17 0)
(3 4.25429e-16 0)
(3 4.71132e-16 0)
(3 9.25392e-16 0)
(3 1.79143e-15 0)
(3 1.87584e-15 0)
(3 1.10051e-15 0)
(3 6.18661e-16 0)
(3 4.18332e-16 0)
(3 1.40528e-16 0)
(3 -3.8339e-16 0)
(3 -2.10216e-16 0)
(3 -3.15716e-16 0)
(3 -4.27287e-16 0)
(3 -8.04949e-16 0)
(3 -1.32711e-15 0)
(3 -1.60412e-15 0)
(3 -1.20414e-15 0)
(3 -8.60308e-16 0)
(3 -9.48824e-16 0)
(3 -9.04603e-16 0)
(3 -3.46643e-16 0)
(3 1.13963e-15 0)
(3 1.62474e-15 0)
(3 1.933e-15 0)
(3 1.56574e-15 0)
(3 9.21939e-16 0)
(3 1.30685e-15 0)
(3 1.75191e-15 0)
(3 1.58107e-15 0)
(3 9.97016e-16 0)
(3 1.04253e-15 0)
(3 1.1184e-15 0)
(3 1.41716e-15 0)
(3 1.77044e-15 0)
(3 2.5628e-15 0)
(3 3.03761e-15 0)
(3 2.81581e-15 0)
(3 2.00184e-15 0)
(3 1.36679e-15 0)
(3 3.50879e-16 0)
(3 -1.86143e-15 0)
(3 -3.15825e-15 0)
(3 -3.68698e-15 0)
(3 -4.09768e-15 0)
(3 -2.52285e-15 0)
(3 -2.07472e-15 0)
(3 -1.89287e-15 0)
(3 -2.0774e-15 0)
(3 -1.5782e-15 0)
(3 -2.56746e-16 0)
(3 6.76775e-16 0)
(3 1.33445e-15 0)
(3 1.86307e-15 0)
(3 2.87123e-15 0)
(3 3.77087e-15 0)
(3 4.46655e-15 0)
(3 4.67419e-15 0)
(3 3.96528e-15 0)
(3 2.8047e-15 0)
(3 1.82171e-15 0)
(3 8.04413e-16 0)
(3 4.12441e-16 0)
(3 2.26839e-16 0)
(3 1.84243e-16 0)
(3 -1.00591e-15 0)
(3 -1.83443e-15 0)
(3 -2.59841e-15 0)
(3 -3.19766e-15 0)
(3 -3.38539e-15 0)
(3 -3.14663e-15 0)
(3 -1.69419e-15 0)
(3 -7.79841e-16 0)
(3 8.73465e-16 0)
(3 1.6032e-15 0)
(3 1.65431e-15 0)
(3 1.2637e-15 0)
(3 5.36567e-16 0)
(3 -8.05587e-16 0)
(3 -1.39064e-15 0)
(3 -1.44117e-15 0)
(3 -1.63283e-16 0)
(3 9.52001e-16 0)
(3 1.59412e-15 0)
(3 1.77242e-15 0)
(3 1.87923e-15 0)
(3 2.84658e-15 0)
(3 4.77351e-15 0)
(3 4.80801e-15 0)
(3 4.68295e-15 0)
(3 -3.61032e-15 0)
(1.72124 0.324862 0)
(0.648125 0.347026 0)
(3 2.73295e-17 0)
(3 2.26121e-16 0)
(3 2.5875e-16 0)
(3 6.45801e-16 0)
(3 1.28849e-15 0)
(3 1.11435e-15 0)
(3 8.79263e-16 0)
(3 6.57103e-16 0)
(3 -7.24777e-17 0)
(3 -2.40556e-16 0)
(3 -1.88478e-16 0)
(3 -4.4401e-16 0)
(3 -1.07891e-15 0)
(3 -1.0903e-15 0)
(3 -8.26961e-16 0)
(3 -3.31611e-16 0)
(3 -3.43092e-16 0)
(3 -1.08963e-15 0)
(3 -1.61073e-15 0)
(3 -1.54949e-15 0)
(3 -1.4749e-15 0)
(3 -1.74092e-15 0)
(3 -1.68675e-15 0)
(3 -9.93135e-16 0)
(3 -2.07735e-16 0)
(3 -1.30213e-16 0)
(3 4.92649e-16 0)
(3 1.01651e-15 0)
(3 6.56106e-16 0)
(3 8.1855e-17 0)
(3 2.79392e-16 0)
(3 9.31583e-16 0)
(3 9.99456e-16 0)
(3 1.12354e-15 0)
(3 1.61235e-15 0)
(3 2.47579e-15 0)
(3 3.49424e-15 0)
(3 3.85377e-15 0)
(3 4.04337e-15 0)
(3 4.03908e-15 0)
(3 4.17208e-15 0)
(3 2.06679e-15 0)
(3 4.87851e-16 0)
(3 -4.33422e-17 0)
(3 -1.17571e-15 0)
(3 -3.7923e-15 0)
(3 -5.80082e-15 0)
(3 -6.12661e-15 0)
(3 -6.10611e-15 0)
(3 -5.06285e-15 0)
(3 -3.66266e-15 0)
(3 -3.87881e-15 0)
(3 -4.11705e-15 0)
(3 -4.26432e-15 0)
(3 -3.71713e-15 0)
(3 -3.09583e-15 0)
(3 -2.15342e-15 0)
(3 -1.26629e-16 0)
(3 3.46648e-15 0)
(3 5.21894e-15 0)
(3 6.02048e-15 0)
(3 6.26183e-15 0)
(3 5.94968e-15 0)
(3 3.42224e-15 0)
(3 1.29898e-15 0)
(3 -3.76651e-16 0)
(3 -1.8782e-15 0)
(3 -2.45133e-15 0)
(3 -3.90672e-15 0)
(3 -5.03493e-15 0)
(3 -5.3174e-15 0)
(3 -4.71506e-15 0)
(3 -4.39873e-15 0)
(3 -2.78949e-15 0)
(3 -3.77303e-17 0)
(3 4.96788e-16 0)
(3 -3.80792e-18 0)
(3 -1.21079e-16 0)
(3 -6.662e-16 0)
(3 -5.74841e-16 0)
(3 -1.21233e-15 0)
(3 -1.62654e-15 0)
(3 -1.86005e-15 0)
(3 -2.15323e-15 0)
(3 -1.67755e-15 0)
(3 -7.43509e-16 0)
(3 1.5003e-15 0)
(3 3.89141e-15 0)
(3 4.20209e-15 0)
(3 5.73262e-15 0)
(3 6.35585e-15 0)
(3 6.53648e-15 0)
(3 6.27099e-15 0)
(3 4.69596e-15 0)
(2.28553 0.343375 0)
(0.758469 0.406582 0)
(3 1.04574e-16 0)
(3 3.1119e-16 0)
(3 2.95996e-16 0)
(3 3.09434e-16 0)
(3 4.70978e-17 0)
(3 5.1632e-17 0)
(3 -5.83131e-16 0)
(3 -1.42622e-15 0)
(3 -1.35846e-15 0)
(3 -7.39965e-16 0)
(3 -6.73393e-16 0)
(3 -2.67916e-16 0)
(3 1.64347e-16 0)
(3 5.05314e-16 0)
(3 4.83974e-16 0)
(3 7.59558e-16 0)
(3 1.19686e-15 0)
(3 1.17183e-15 0)
(3 1.11444e-15 0)
(3 1.2675e-15 0)
(3 3.95487e-16 0)
(3 4.27632e-16 0)
(3 5.66503e-16 0)
(3 4.66799e-16 0)
(3 3.932e-16 0)
(3 5.3313e-16 0)
(3 6.10984e-16 0)
(3 3.01822e-16 0)
(3 2.1046e-16 0)
(3 7.31724e-16 0)
(3 1.18068e-15 0)
(3 1.91466e-15 0)
(3 2.13423e-15 0)
(3 2.87868e-15 0)
(3 3.14465e-15 0)
(3 3.28595e-15 0)
(3 3.585e-15 0)
(3 4.25662e-15 0)
(3 4.89339e-15 0)
(3 4.57188e-15 0)
(3 3.42527e-15 0)
(3 8.71333e-16 0)
(3 2.01163e-16 0)
(3 -4.67254e-16 0)
(3 -1.1443e-15 0)
(3 -1.69317e-15 0)
(3 -3.80903e-15 0)
(3 -4.9762e-15 0)
(3 -5.59919e-15 0)
(3 -6.17433e-15 0)
(3 -5.75893e-15 0)
(3 -4.31514e-15 0)
(3 -4.56169e-15 0)
(3 -5.24207e-15 0)
(3 -5.06134e-15 0)
(3 -4.30078e-15 0)
(3 -3.75546e-15 0)
(3 -1.82103e-15 0)
(3 9.80053e-16 0)
(3 3.38025e-15 0)
(3 5.0387e-15 0)
(3 6.0641e-15 0)
(3 5.40788e-15 0)
(3 3.85535e-15 0)
(3 1.76592e-15 0)
(3 6.12804e-16 0)
(3 -8.00961e-16 0)
(3 -2.09265e-15 0)
(3 -2.95234e-15 0)
(3 -3.7095e-15 0)
(3 -4.77502e-15 0)
(3 -4.28156e-15 0)
(3 -2.19991e-15 0)
(3 -1.2524e-15 0)
(3 -8.22775e-16 0)
(3 -1.5943e-15 0)
(3 -2.33232e-15 0)
(3 -3.96904e-15 0)
(3 -4.04165e-15 0)
(3 -3.05429e-15 0)
(3 -2.75959e-15 0)
(3 -2.11038e-15 0)
(3 -1.62698e-15 0)
(3 -1.14063e-15 0)
(3 -2.39079e-16 0)
(3 4.60803e-16 0)
(3 2.32094e-15 0)
(3 4.06305e-15 0)
(3 4.33965e-15 0)
(3 5.17641e-15 0)
(3 5.70186e-15 0)
(3 6.66097e-15 0)
(3 6.94066e-15 0)
(3 4.21912e-15 0)
(2.89833 0.163177 0)
(0.929053 0.449097 0)
(3 1.93416e-16 0)
(3 3.96895e-17 0)
(3 -1.64443e-16 0)
(3 -1.06993e-15 0)
(3 -1.36819e-15 0)
(3 -1.16495e-15 0)
(3 -7.467e-16 0)
(3 -6.19354e-16 0)
(3 -6.09502e-16 0)
(3 -1.02449e-15 0)
(3 -6.74318e-16 0)
(3 -2.87632e-16 0)
(3 6.04368e-16 0)
(3 3.05272e-16 0)
(3 -4.16076e-16 0)
(3 -7.38875e-16 0)
(3 -8.61077e-16 0)
(3 -4.12975e-16 0)
(3 7.5173e-16 0)
(3 1.16162e-15 0)
(3 1.12717e-15 0)
(3 9.75697e-16 0)
(3 1.13393e-15 0)
(3 9.37235e-16 0)
(3 2.11281e-16 0)
(3 8.20453e-16 0)
(3 8.59444e-16 0)
(3 7.3677e-16 0)
(3 7.02584e-16 0)
(3 1.88734e-15 0)
(3 2.95113e-15 0)
(3 3.45229e-15 0)
(3 3.8921e-15 0)
(3 4.18275e-15 0)
(3 5.11519e-15 0)
(3 4.93452e-15 0)
(3 3.48675e-15 0)
(3 2.25148e-15 0)
(3 2.42818e-15 0)
(3 2.10847e-15 0)
(3 -1.96126e-17 0)
(3 -1.39413e-16 0)
(3 -2.43282e-16 0)
(3 -4.55869e-16 0)
(3 -1.58471e-16 0)
(3 6.3997e-17 0)
(3 -8.4062e-16 0)
(3 -2.08796e-15 0)
(3 -2.36588e-15 0)
(3 -3.42166e-15 0)
(3 -3.98892e-15 0)
(3 -3.79896e-15 0)
(3 -3.56257e-15 0)
(3 -4.41144e-15 0)
(3 -4.79079e-15 0)
(3 -4.07592e-15 0)
(3 -3.14454e-15 0)
(3 -2.58971e-15 0)
(3 -1.95317e-15 0)
(3 9.91404e-16 0)
(3 2.89627e-15 0)
(3 3.13972e-15 0)
(3 3.1922e-15 0)
(3 3.23479e-15 0)
(3 3.13369e-15 0)
(3 2.20636e-15 0)
(3 1.09167e-15 0)
(3 -2.56957e-16 0)
(3 -1.58084e-15 0)
(3 -1.87807e-15 0)
(3 -1.84192e-15 0)
(3 -4.02615e-16 0)
(3 -4.56817e-16 0)
(3 -1.76317e-15 0)
(3 -2.17086e-15 0)
(3 -2.51934e-15 0)
(3 -2.73934e-15 0)
(3 -3.7753e-15 0)
(3 -4.83403e-15 0)
(3 -5.15281e-15 0)
(3 -4.99477e-15 0)
(3 -2.34516e-15 0)
(3 -1.35665e-15 0)
(3 -6.80931e-16 0)
(3 3.83994e-16 0)
(3 6.53737e-16 0)
(3 1.41458e-15 0)
(3 1.64145e-15 0)
(3 2.49945e-15 0)
(3 3.48265e-15 0)
(3 4.30459e-15 0)
(3 4.6081e-15 0)
(3 4.21165e-15 0)
(3 2.31344e-15 0)
(3.01555 0.00907687 0)
(1.1833 0.460339 0)
(3 1.39924e-17 0)
(3 -4.07025e-17 0)
(3 -4.56179e-17 0)
(3 -6.72032e-17 0)
(3 -2.0853e-16 0)
(3 -4.74415e-16 0)
(3 -1.95814e-16 0)
(3 -3.50281e-16 0)
(3 -7.0591e-16 0)
(3 -8.30703e-16 0)
(3 -6.68782e-16 0)
(3 -5.1633e-16 0)
(3 -9.28794e-16 0)
(3 -1.73396e-15 0)
(3 -2.33765e-15 0)
(3 -2.77059e-15 0)
(3 -2.69936e-15 0)
(3 -2.62284e-15 0)
(3 -2.49282e-15 0)
(3 -2.27736e-15 0)
(3 -1.85664e-15 0)
(3 -1.49751e-15 0)
(3 -8.62978e-16 0)
(3 -5.07765e-17 0)
(3 1.52435e-16 0)
(3 -4.59079e-16 0)
(3 -1.13336e-15 0)
(3 -6.74233e-16 0)
(3 7.04502e-17 0)
(3 5.4766e-16 0)
(3 1.5785e-15 0)
(3 2.9191e-15 0)
(3 3.7143e-15 0)
(3 3.5151e-15 0)
(3 3.30383e-15 0)
(3 3.75492e-15 0)
(3 3.51562e-15 0)
(3 1.44307e-15 0)
(3 -4.59711e-16 0)
(3 -1.52114e-15 0)
(3 -1.97172e-15 0)
(3 -1.47064e-15 0)
(3 -1.07896e-15 0)
(3 -5.27141e-16 0)
(3 9.37886e-16 0)
(3 1.71066e-15 0)
(3 2.40173e-15 0)
(3 2.10167e-15 0)
(3 1.58687e-15 0)
(3 1.53173e-16 0)
(3 -1.17193e-15 0)
(3 -2.11205e-15 0)
(3 -1.75546e-15 0)
(3 -1.53597e-15 0)
(3 -2.38595e-15 0)
(3 -1.31887e-15 0)
(3 -2.76543e-16 0)
(3 -2.95352e-16 0)
(3 -6.78195e-16 0)
(3 -1.63187e-15 0)
(3 -1.47021e-15 0)
(3 -4.88842e-16 0)
(3 -1.43941e-17 0)
(3 -1.70848e-16 0)
(3 -1.55035e-16 0)
(3 2.32121e-16 0)
(3 -5.31801e-17 0)
(3 4.38616e-16 0)
(3 -1.11193e-16 0)
(3 -2.35799e-16 0)
(3 -2.53053e-16 0)
(3 2.65917e-16 0)
(3 -3.28906e-16 0)
(3 -6.98e-16 0)
(3 -1.18653e-15 0)
(3 -2.15089e-15 0)
(3 -2.39875e-15 0)
(3 -2.4168e-15 0)
(3 -4.19068e-15 0)
(3 -6.4413e-15 0)
(3 -7.36656e-15 0)
(3 -5.22769e-15 0)
(3 -5.47612e-16 0)
(3 8.2187e-16 0)
(3 1.18311e-15 0)
(3 8.12984e-16 0)
(3 1.09828e-16 0)
(3 1.10399e-16 0)
(3 1.03786e-15 0)
(3 1.06308e-15 0)
(3 5.53125e-16 0)
(3 9.5564e-16 0)
(3 2.34845e-15 0)
(3 2.56474e-15 0)
(3.00013 2.64744e-05 0)
(1.67947 0.491363 0)
(3 -5.16677e-16 0)
(3 -5.44119e-16 0)
(3 -5.30635e-16 0)
(3 -1.51955e-16 0)
(3 -1.49387e-16 0)
(3 -1.14292e-16 0)
(3 -6.8611e-16 0)
(3 -7.90965e-16 0)
(3 -8.86073e-16 0)
(3 -1.11966e-15 0)
(3 -1.36296e-15 0)
(3 -1.28612e-15 0)
(3 -1.38392e-15 0)
(3 -1.18096e-15 0)
(3 -1.64875e-15 0)
(3 -1.6911e-15 0)
(3 -2.06666e-15 0)
(3 -2.16832e-15 0)
(3 -3.31948e-15 0)
(3 -4.16392e-15 0)
(3 -3.48037e-15 0)
(3 -1.70288e-15 0)
(3 -8.38394e-16 0)
(3 -7.64641e-16 0)
(3 1.14503e-16 0)
(3 -2.47114e-16 0)
(3 -3.70159e-16 0)
(3 -3.04934e-16 0)
(3 -2.28613e-16 0)
(3 1.03573e-16 0)
(3 6.15789e-16 0)
(3 1.6536e-15 0)
(3 2.41166e-15 0)
(3 2.2492e-15 0)
(3 4.9835e-16 0)
(3 -4.44173e-16 0)
(3 3.87595e-16 0)
(3 4.20219e-16 0)
(3 5.07295e-16 0)
(3 -1.69942e-16 0)
(3 -1.09063e-15 0)
(3 -1.37479e-15 0)
(3 -9.20733e-16 0)
(3 1.28413e-16 0)
(3 1.3779e-15 0)
(3 2.0364e-15 0)
(3 3.64447e-15 0)
(3 3.75185e-15 0)
(3 3.07282e-15 0)
(3 1.11053e-15 0)
(3 -3.81072e-16 0)
(3 -4.18913e-16 0)
(3 7.51502e-16 0)
(3 1.18583e-15 0)
(3 1.51444e-15 0)
(3 7.19204e-16 0)
(3 -1.10056e-15 0)
(3 -2.99041e-15 0)
(3 -5.19322e-15 0)
(3 -4.78703e-15 0)
(3 -3.79987e-15 0)
(3 -3.19756e-16 0)
(3 -1.37202e-15 0)
(3 -1.8083e-15 0)
(3 -2.07696e-15 0)
(3 -1.48315e-15 0)
(3 -1.13814e-15 0)
(3 -4.85907e-16 0)
(3 1.33552e-15 0)
(3 2.10784e-15 0)
(3 2.33862e-15 0)
(3 1.13478e-15 0)
(3 -5.75011e-17 0)
(3 -1.08115e-15 0)
(3 -1.54176e-15 0)
(3 -1.87616e-15 0)
(3 -2.07435e-15 0)
(3 -1.58933e-15 0)
(3 -2.61331e-15 0)
(3 -3.54422e-15 0)
(3 -3.85989e-15 0)
(3 -3.20768e-15 0)
(3 -2.74554e-16 0)
(3 2.12748e-15 0)
(3 2.2476e-15 0)
(3 1.81193e-15 0)
(3 -6.5157e-16 0)
(3 -1.08867e-15 0)
(3 -4.19128e-16 0)
(3 -4.02258e-16 0)
(3 -1.04097e-15 0)
(3 -1.47091e-16 0)
(3 1.73911e-15 0)
(3 4.01215e-15 0)
(3 4.97618e-09 0)
(2.442 0.351732 0)
(3 -6.27474e-17 0)
(3 -4.45693e-16 0)
(3 -4.89007e-16 0)
(3 -5.12651e-16 0)
(3 -7.66416e-16 0)
(3 -8.9202e-16 0)
(3 -1.09138e-15 0)
(3 -5.40505e-16 0)
(3 -1.10414e-16 0)
(3 -4.63133e-16 0)
(3 -3.16933e-16 0)
(3 -4.63587e-16 0)
(3 -1.31067e-16 0)
(3 2.01515e-16 0)
(3 2.4319e-16 0)
(3 1.49092e-16 0)
(3 -6.24303e-16 0)
(3 -1.24923e-15 0)
(3 -1.05917e-15 0)
(3 -8.57581e-16 0)
(3 2.01515e-16 0)
(3 9.05533e-16 0)
(3 1.2635e-15 0)
(3 1.50754e-15 0)
(3 1.40763e-15 0)
(3 1.47514e-15 0)
(3 3.13566e-15 0)
(3 3.25996e-15 0)
(3 2.97094e-15 0)
(3 1.98014e-15 0)
(3 1.49024e-15 0)
(3 8.3359e-16 0)
(3 6.9312e-16 0)
(3 1.55533e-18 0)
(3 -1.54249e-15 0)
(3 -2.40251e-15 0)
(3 -2.16715e-15 0)
(3 -1.92399e-15 0)
(3 -1.06214e-15 0)
(3 -7.53417e-16 0)
(3 -3.51736e-16 0)
(3 -3.61763e-16 0)
(3 -2.60987e-16 0)
(3 -1.5821e-17 0)
(3 -6.27875e-17 0)
(3 -1.03513e-16 0)
(3 6.19181e-17 0)
(3 1.13602e-15 0)
(3 2.22131e-15 0)
(3 1.91506e-15 0)
(3 1.71061e-15 0)
(3 2.17833e-15 0)
(3 2.17358e-15 0)
(3 2.54496e-15 0)
(3 4.35678e-15 0)
(3 4.5523e-15 0)
(3 1.97687e-15 0)
(3 -2.70697e-16 0)
(3 -1.70587e-15 0)
(3 -2.7131e-15 0)
(3 -2.34891e-15 0)
(3 -2.32348e-15 0)
(3 -1.25776e-15 0)
(3 -7.60278e-16 0)
(3 -1.23759e-15 0)
(3 -7.8143e-16 0)
(3 -2.3433e-16 0)
(3 2.63645e-16 0)
(3 1.59918e-15 0)
(3 2.76462e-15 0)
(3 3.00713e-15 0)
(3 4.63036e-16 0)
(3 -1.14763e-15 0)
(3 -8.83444e-16 0)
(3 -1.43613e-15 0)
(3 -1.38056e-15 0)
(3 -1.08936e-15 0)
(3 -1.07425e-15 0)
(3 -1.28276e-15 0)
(3 -1.79859e-15 0)
(3 -1.54883e-15 0)
(3 -1.77277e-15 0)
(3 -1.39729e-15 0)
(3 -2.2032e-16 0)
(3 1.6949e-15 0)
(3 -5.26038e-16 0)
(3 -2.9258e-15 0)
(3 -3.04956e-15 0)
(3 -3.04482e-15 0)
(3 -2.19403e-15 0)
(3 -1.08907e-15 0)
(3 -4.74032e-16 0)
(3 -1.27035e-16 0)
(3 1.43468e-15 0)
(3 1.05397e-13 0)
(2.97121 0.0800106 0)
(3 5.78159e-17 0)
(3 1.6176e-17 0)
(3 3.33633e-17 0)
(3 -5.64334e-16 0)
(3 -9.7859e-16 0)
(3 -7.23356e-16 0)
(3 -6.06902e-16 0)
(3 -3.04362e-16 0)
(3 1.25019e-16 0)
(3 6.21634e-16 0)
(3 5.76192e-16 0)
(3 3.53383e-16 0)
(3 -3.60793e-16 0)
(3 -9.35637e-16 0)
(3 -8.86488e-16 0)
(3 -5.90906e-16 0)
(3 -5.02633e-16 0)
(3 -4.13232e-16 0)
(3 4.41154e-16 0)
(3 1.77175e-15 0)
(3 2.16854e-15 0)
(3 1.67846e-15 0)
(3 1.30078e-15 0)
(3 1.75801e-15 0)
(3 1.8197e-15 0)
(3 1.59081e-15 0)
(3 1.97174e-15 0)
(3 2.81578e-15 0)
(3 2.72479e-15 0)
(3 1.94869e-15 0)
(3 1.2513e-15 0)
(3 -4.50659e-16 0)
(3 -1.87413e-15 0)
(3 -2.82631e-15 0)
(3 -3.28198e-15 0)
(3 -3.27697e-15 0)
(3 -4.16498e-15 0)
(3 -4.32908e-15 0)
(3 -4.25214e-15 0)
(3 -3.39591e-15 0)
(3 -1.53575e-15 0)
(3 -5.88029e-16 0)
(3 -2.88975e-16 0)
(3 -2.71995e-16 0)
(3 -9.93183e-16 0)
(3 -1.38882e-15 0)
(3 -1.38605e-15 0)
(3 -6.45502e-16 0)
(3 8.39648e-16 0)
(3 1.7029e-15 0)
(3 2.65508e-15 0)
(3 2.77007e-15 0)
(3 2.34425e-15 0)
(3 2.9667e-15 0)
(3 4.61641e-15 0)
(3 6.25543e-15 0)
(3 4.8106e-15 0)
(3 3.41528e-15 0)
(3 2.1721e-15 0)
(3 1.13777e-15 0)
(3 5.54977e-16 0)
(3 4.53046e-16 0)
(3 1.34928e-15 0)
(3 1.45563e-15 0)
(3 2.38919e-16 0)
(3 -8.92097e-16 0)
(3 -1.87717e-15 0)
(3 -1.8896e-15 0)
(3 -1.19351e-15 0)
(3 7.89625e-17 0)
(3 1.72811e-16 0)
(3 -5.33978e-16 0)
(3 -1.26392e-15 0)
(3 -1.45799e-15 0)
(3 -7.97792e-16 0)
(3 -5.02198e-16 0)
(3 -9.31814e-16 0)
(3 -1.39243e-15 0)
(3 -1.31604e-15 0)
(3 -8.03783e-16 0)
(3 -1.34128e-16 0)
(3 -1.47034e-15 0)
(3 -2.16417e-15 0)
(3 -2.0775e-15 0)
(3 -8.39599e-16 0)
(3 -3.57576e-15 0)
(3 -4.94556e-15 0)
(3 -4.60458e-15 0)
(3 -3.63869e-15 0)
(3 -1.56155e-15 0)
(3 -3.17833e-17 0)
(3 -1.16634e-16 0)
(3 -1.05239e-15 0)
(3 -4.0441e-16 0)
(3 2.00092e-15 0)
(3.0005 0.00192002 0)
(3 -1.59045e-16 0)
(3 -2.5255e-16 0)
(3 -2.02704e-16 0)
(3 -1.71129e-16 0)
(3 6.35312e-16 0)
(3 5.49237e-16 0)
(3 6.74787e-16 0)
(3 9.95665e-17 0)
(3 1.19917e-16 0)
(3 8.14975e-16 0)
(3 3.65225e-16 0)
(3 6.36457e-18 0)
(3 7.4719e-17 0)
(3 1.92517e-16 0)
(3 4.73629e-16 0)
(3 7.74319e-16 0)
(3 5.35385e-16 0)
(3 5.21907e-16 0)
(3 7.12439e-16 0)
(3 8.57939e-16 0)
(3 8.48722e-16 0)
(3 2.33438e-16 0)
(3 6.49808e-17 0)
(3 3.89016e-16 0)
(3 8.27137e-16 0)
(3 1.32395e-15 0)
(3 7.92485e-16 0)
(3 9.38049e-16 0)
(3 1.07273e-15 0)
(3 8.16887e-16 0)
(3 1.17834e-16 0)
(3 -6.42671e-16 0)
(3 -1.94368e-15 0)
(3 -3.5214e-15 0)
(3 -4.57856e-15 0)
(3 -4.82969e-15 0)
(3 -4.73094e-15 0)
(3 -4.2501e-15 0)
(3 -3.30163e-15 0)
(3 -2.05819e-15 0)
(3 -1.04235e-15 0)
(3 -3.76308e-16 0)
(3 -3.70247e-16 0)
(3 -1.14709e-16 0)
(3 -7.74393e-17 0)
(3 5.05666e-16 0)
(3 9.07989e-16 0)
(3 1.30564e-15 0)
(3 1.41099e-15 0)
(3 2.1171e-15 0)
(3 1.65762e-15 0)
(3 1.35946e-15 0)
(3 1.85936e-15 0)
(3 2.07412e-15 0)
(3 2.86704e-15 0)
(3 3.32741e-15 0)
(3 2.47608e-15 0)
(3 1.81036e-15 0)
(3 2.89157e-16 0)
(3 4.33175e-17 0)
(3 1.70909e-16 0)
(3 -7.4707e-17 0)
(3 -5.22047e-16 0)
(3 -7.79153e-16 0)
(3 -1.02033e-15 0)
(3 -1.96072e-15 0)
(3 -4.06522e-15 0)
(3 -4.92575e-15 0)
(3 -4.30123e-15 0)
(3 -3.08228e-15 0)
(3 -3.32452e-16 0)
(3 5.99219e-16 0)
(3 -4.71649e-16 0)
(3 -1.4539e-15 0)
(3 -1.40282e-15 0)
(3 -1.62154e-15 0)
(3 -1.44212e-15 0)
(3 -1.33868e-15 0)
(3 -2.17011e-16 0)
(3 8.24632e-16 0)
(3 7.39483e-16 0)
(3 5.05146e-16 0)
(3 -7.28405e-16 0)
(3 -1.69761e-15 0)
(3 -2.92883e-15 0)
(3 -4.03903e-15 0)
(3 -4.49293e-15 0)
(3 -4.54126e-15 0)
(3 -5.44193e-15 0)
(3 -3.76647e-15 0)
(3 -2.82866e-15 0)
(3 -1.49209e-15 0)
(3 -5.48426e-16 0)
(3 1.48544e-15 0)
(3 3.34936e-15 0)
(3 4.55392e-06 0)
(3 1.26257e-16 0)
(3 1.68201e-16 0)
(3 1.51128e-16 0)
(3 5.25849e-16 0)
(3 7.12844e-16 0)
(3 5.53961e-16 0)
(3 1.98677e-16 0)
(3 -1.44723e-16 0)
(3 -5.65403e-16 0)
(3 -5.58391e-16 0)
(3 1.98761e-16 0)
(3 4.67519e-16 0)
(3 4.4551e-16 0)
(3 9.60422e-16 0)
(3 1.33636e-15 0)
(3 1.24787e-15 0)
(3 1.0824e-15 0)
(3 8.32101e-16 0)
(3 1.02018e-15 0)
(3 1.33387e-15 0)
(3 1.04362e-15 0)
(3 6.61652e-16 0)
(3 1.14476e-15 0)
(3 2.01776e-15 0)
(3 1.96146e-15 0)
(3 2.7379e-15 0)
(3 2.24159e-15 0)
(3 1.01696e-15 0)
(3 6.79714e-16 0)
(3 4.71997e-16 0)
(3 3.35454e-16 0)
(3 7.92915e-17 0)
(3 -2.42339e-16 0)
(3 -1.6266e-15 0)
(3 -3.17384e-15 0)
(3 -3.54425e-15 0)
(3 -3.82114e-15 0)
(3 -4.00753e-15 0)
(3 -3.73282e-15 0)
(3 -2.92968e-15 0)
(3 -2.48899e-15 0)
(3 -6.81002e-16 0)
(3 -3.55532e-16 0)
(3 2.90034e-16 0)
(3 1.32195e-15 0)
(3 3.0509e-15 0)
(3 3.43808e-15 0)
(3 3.33899e-15 0)
(3 2.9243e-15 0)
(3 2.85916e-15 0)
(3 6.96362e-16 0)
(3 6.45318e-17 0)
(3 8.27391e-16 0)
(3 1.1367e-15 0)
(3 1.10468e-15 0)
(3 1.14454e-15 0)
(3 2.14979e-15 0)
(3 3.43724e-15 0)
(3 4.03165e-15 0)
(3 2.07403e-15 0)
(3 1.61728e-15 0)
(3 5.71662e-16 0)
(3 1.36049e-17 0)
(3 -1.91361e-16 0)
(3 6.92279e-17 0)
(3 -3.86875e-17 0)
(3 -8.89596e-16 0)
(3 -2.69036e-15 0)
(3 -2.89794e-15 0)
(3 -1.42808e-15 0)
(3 -9.83927e-16 0)
(3 -1.60086e-16 0)
(3 -1.85835e-16 0)
(3 -8.00971e-16 0)
(3 -1.96606e-15 0)
(3 -2.29172e-15 0)
(3 -1.48491e-15 0)
(3 -3.15777e-16 0)
(3 1.31954e-15 0)
(3 1.96814e-15 0)
(3 1.86445e-15 0)
(3 2.61886e-15 0)
(3 3.27747e-15 0)
(3 2.58464e-15 0)
(3 -7.71444e-16 0)
(3 -3.68213e-15 0)
(3 -5.22622e-15 0)
(3 -5.61643e-15 0)
(3 -5.33995e-15 0)
(3 -4.44693e-15 0)
(3 -3.09882e-15 0)
(3 -1.64015e-15 0)
(3 -1.00885e-15 0)
(3 2.54928e-16 0)
(3 5.59274e-16 0)
(3 1.85312e-09 0)
(3 6.75695e-17 0)
(3 2.31119e-16 0)
(3 -2.93776e-17 0)
(3 -3.83994e-17 0)
(3 -1.2995e-16 0)
(3 2.41462e-16 0)
(3 -3.27439e-16 0)
(3 -3.25137e-16 0)
(3 -4.04541e-17 0)
(3 -4.20242e-16 0)
(3 1.65268e-16 0)
(3 8.4417e-16 0)
(3 8.16805e-16 0)
(3 4.4831e-17 0)
(3 -1.31952e-16 0)
(3 -1.4357e-16 0)
(3 3.30826e-17 0)
(3 1.28171e-15 0)
(3 2.02654e-15 0)
(3 2.09804e-15 0)
(3 1.92205e-15 0)
(3 2.16374e-15 0)
(3 2.36315e-15 0)
(3 2.40243e-15 0)
(3 2.3212e-15 0)
(3 2.38308e-15 0)
(3 1.29994e-15 0)
(3 3.2017e-16 0)
(3 -3.87792e-16 0)
(3 -6.45378e-16 0)
(3 -7.32275e-16 0)
(3 -7.5374e-16 0)
(3 -7.02693e-16 0)
(3 -7.47141e-16 0)
(3 -9.40044e-16 0)
(3 -7.54151e-16 0)
(3 -1.45672e-15 0)
(3 -1.93694e-15 0)
(3 -2.50224e-15 0)
(3 -3.23109e-15 0)
(3 -2.81935e-15 0)
(3 -1.26521e-15 0)
(3 -2.84681e-16 0)
(3 4.21952e-16 0)
(3 1.21992e-15 0)
(3 2.09427e-15 0)
(3 3.0492e-15 0)
(3 1.83177e-15 0)
(3 1.16389e-15 0)
(3 6.69429e-16 0)
(3 5.99363e-16 0)
(3 6.80933e-16 0)
(3 2.5721e-16 0)
(3 -1.15017e-17 0)
(3 8.49152e-16 0)
(3 1.77552e-15 0)
(3 3.66777e-15 0)
(3 3.90602e-15 0)
(3 3.9723e-15 0)
(3 3.5381e-15 0)
(3 1.92801e-15 0)
(3 1.46929e-15 0)
(3 8.15295e-16 0)
(3 5.93468e-16 0)
(3 6.85972e-16 0)
(3 1.5599e-15 0)
(3 2.17485e-15 0)
(3 1.8217e-15 0)
(3 1.69977e-15 0)
(3 -8.43721e-17 0)
(3 -6.348e-16 0)
(3 -1.20581e-15 0)
(3 -1.20091e-15 0)
(3 -1.02575e-15 0)
(3 -1.51489e-15 0)
(3 -7.41062e-16 0)
(3 2.786e-16 0)
(3 1.86754e-15 0)
(3 1.79805e-15 0)
(3 2.46213e-15 0)
(3 3.22808e-15 0)
(3 3.70754e-15 0)
(3 3.97556e-15 0)
(3 2.00317e-15 0)
(3 -1.9907e-15 0)
(3 -3.8404e-15 0)
(3 -6.16496e-15 0)
(3 -7.0817e-15 0)
(3 -5.73301e-15 0)
(3 -3.12539e-15 0)
(3 -1.0002e-15 0)
(3 5.97017e-16 0)
(3 3.9447e-16 0)
(3 7.4621e-16 0)
(3 -3.47967e-16 0)
(3 1.95269e-13 0)
(3 -1.43323e-17 0)
(3 3.26279e-16 0)
(3 2.08042e-16 0)
(3 1.89264e-16 0)
(3 2.16388e-17 0)
(3 -2.58079e-16 0)
(3 -2.26103e-16 0)
(3 -1.41797e-16 0)
(3 3.0098e-16 0)
(3 6.88082e-16 0)
(3 6.55541e-16 0)
(3 2.24012e-16 0)
(3 3.92438e-17 0)
(3 -6.75166e-16 0)
(3 -6.66126e-16 0)
(3 -5.05165e-16 0)
(3 4.67649e-16 0)
(3 1.7178e-15 0)
(3 2.58777e-15 0)
(3 2.61549e-15 0)
(3 2.48149e-15 0)
(3 2.20624e-15 0)
(3 1.61582e-15 0)
(3 9.68763e-16 0)
(3 6.088e-16 0)
(3 -3.0012e-16 0)
(3 -1.73142e-15 0)
(3 -2.59468e-15 0)
(3 -2.56343e-15 0)
(3 -1.63794e-15 0)
(3 -1.66649e-15 0)
(3 -1.97603e-15 0)
(3 -2.47261e-15 0)
(3 -2.03792e-15 0)
(3 -6.79939e-16 0)
(3 -4.78689e-16 0)
(3 -6.92743e-16 0)
(3 -5.57861e-16 0)
(3 -1.09625e-15 0)
(3 -1.34634e-15 0)
(3 -1.16276e-15 0)
(3 -6.5342e-16 0)
(3 -5.21277e-16 0)
(3 -3.02408e-16 0)
(3 2.88278e-16 0)
(3 5.57396e-16 0)
(3 4.90299e-16 0)
(3 -7.01447e-16 0)
(3 -4.83922e-16 0)
(3 -3.41008e-16 0)
(3 -4.04549e-16 0)
(3 -1.47455e-16 0)
(3 6.69926e-16 0)
(3 1.10355e-15 0)
(3 1.59891e-15 0)
(3 1.68809e-15 0)
(3 2.25846e-15 0)
(3 2.74397e-15 0)
(3 2.39606e-15 0)
(3 1.48747e-15 0)
(3 9.09695e-16 0)
(3 3.83539e-16 0)
(3 2.74591e-16 0)
(3 6.29672e-16 0)
(3 4.32082e-16 0)
(3 1.28195e-15 0)
(3 2.30476e-15 0)
(3 2.88641e-15 0)
(3 2.19661e-15 0)
(3 1.13647e-15 0)
(3 4.38062e-16 0)
(3 6.2424e-16 0)
(3 9.21213e-16 0)
(3 1.49461e-15 0)
(3 3.25179e-15 0)
(3 3.65052e-15 0)
(3 3.73301e-15 0)
(3 4.36119e-15 0)
(3 4.45746e-15 0)
(3 4.7906e-15 0)
(3 4.91242e-15 0)
(3 3.45172e-15 0)
(3 -7.82797e-17 0)
(3 -1.47076e-15 0)
(3 -2.46914e-15 0)
(3 -2.94515e-15 0)
(3 -3.79513e-15 0)
(3 -5.11099e-15 0)
(3 -3.01569e-15 0)
(3 7.60892e-16 0)
(3 2.58106e-15 0)
(3 2.49404e-15 0)
(3 2.15881e-15 0)
(3 1.19453e-15 0)
(3 -7.51719e-16 0)
(3 -6.10681e-16 0)
(3 7.3887e-17 0)
(3 3.91628e-18 0)
(3 2.3018e-16 0)
(3 3.0425e-16 0)
(3 -5.4889e-16 0)
(3 -5.7912e-16 0)
(3 -1.08811e-16 0)
(3 1.61597e-16 0)
(3 3.79128e-16 0)
(3 9.91739e-17 0)
(3 2.06174e-16 0)
(3 2.1523e-16 0)
(3 1.26597e-16 0)
(3 -3.40956e-17 0)
(3 -2.7273e-17 0)
(3 9.94244e-17 0)
(3 1.01777e-15 0)
(3 2.17462e-15 0)
(3 2.96542e-15 0)
(3 3.26852e-15 0)
(3 3.45256e-15 0)
(3 2.88326e-15 0)
(3 2.03447e-15 0)
(3 9.52699e-16 0)
(3 -4.5801e-16 0)
(3 -1.08873e-15 0)
(3 -1.72122e-15 0)
(3 -2.20573e-15 0)
(3 -2.25179e-15 0)
(3 -1.81193e-15 0)
(3 -1.71293e-15 0)
(3 -2.32417e-15 0)
(3 -2.28205e-15 0)
(3 -2.10515e-15 0)
(3 -1.72171e-15 0)
(3 -1.64536e-15 0)
(3 -1.60312e-15 0)
(3 -1.47621e-15 0)
(3 -1.35077e-15 0)
(3 -1.02621e-15 0)
(3 -1.0719e-15 0)
(3 -9.45105e-16 0)
(3 -3.08759e-16 0)
(3 6.33362e-16 0)
(3 1.11678e-15 0)
(3 3.54748e-16 0)
(3 -9.88647e-16 0)
(3 -7.60198e-16 0)
(3 -8.32471e-16 0)
(3 -8.88938e-16 0)
(3 3.22891e-16 0)
(3 1.12082e-15 0)
(3 3.52156e-15 0)
(3 4.28958e-15 0)
(3 3.85681e-15 0)
(3 3.46021e-15 0)
(3 3.60534e-15 0)
(3 3.063e-15 0)
(3 1.58646e-15 0)
(3 1.00956e-15 0)
(3 9.91828e-16 0)
(3 7.54163e-16 0)
(3 1.62344e-15 0)
(3 2.12516e-15 0)
(3 2.05005e-15 0)
(3 1.60352e-15 0)
(3 1.24483e-15 0)
(3 8.28578e-16 0)
(3 1.09319e-16 0)
(3 -6.92799e-16 0)
(3 -6.72212e-16 0)
(3 4.57453e-16 0)
(3 6.28243e-16 0)
(3 1.1067e-15 0)
(3 1.56533e-15 0)
(3 2.65955e-15 0)
(3 3.60782e-15 0)
(3 4.70301e-15 0)
(3 6.04543e-15 0)
(3 6.08893e-15 0)
(3 5.32305e-15 0)
(3 2.98332e-15 0)
(3 1.33475e-15 0)
(3 -1.10055e-15 0)
(3 -1.39896e-15 0)
(3 -1.45747e-15 0)
(3 -9.12548e-16 0)
(3 -3.11366e-16 0)
(3 6.0226e-16 0)
(3 2.20541e-15 0)
(3 2.96249e-15 0)
(3 3.07072e-15 0)
(3 7.48609e-16 0)
(3 -1.91663e-15 0)
(3 -2.88779e-15 0)
(3 -2.6335e-15 0)
(3 -3.93303e-17 0)
(3 -3.47791e-16 0)
(3 -4.97308e-16 0)
(3 -5.04996e-16 0)
(3 -1.90026e-16 0)
(3 1.7728e-16 0)
(3 4.95608e-16 0)
(3 5.19645e-16 0)
(3 3.31168e-16 0)
(3 8.96589e-18 0)
(3 -3.93521e-16 0)
(3 -4.33306e-17 0)
(3 1.14822e-16 0)
(3 1.08429e-15 0)
(3 1.11721e-15 0)
(3 1.25625e-15 0)
(3 1.24271e-15 0)
(3 1.56175e-15 0)
(3 1.70803e-15 0)
(3 2.29417e-15 0)
(3 3.14053e-15 0)
(3 3.07915e-15 0)
(3 2.21308e-15 0)
(3 1.14225e-15 0)
(3 6.25014e-16 0)
(3 -1.30053e-16 0)
(3 3.81835e-16 0)
(3 1.32841e-15 0)
(3 8.18948e-16 0)
(3 1.12517e-15 0)
(3 -2.72657e-17 0)
(3 -6.95158e-16 0)
(3 -4.96695e-16 0)
(3 -2.04187e-16 0)
(3 -4.91105e-16 0)
(3 -4.32829e-16 0)
(3 -2.82424e-17 0)
(3 3.1185e-17 0)
(3 5.46123e-16 0)
(3 6.2276e-16 0)
(3 2.7525e-16 0)
(3 1.72892e-16 0)
(3 8.19686e-16 0)
(3 1.26184e-15 0)
(3 -1.15604e-16 0)
(3 -1.1679e-15 0)
(3 -1.62766e-15 0)
(3 -1.55838e-15 0)
(3 -1.25369e-15 0)
(3 -7.15381e-16 0)
(3 -6.95315e-17 0)
(3 1.16631e-15 0)
(3 1.78303e-15 0)
(3 3.35781e-15 0)
(3 4.98065e-15 0)
(3 4.7587e-15 0)
(3 2.84474e-15 0)
(3 1.28192e-15 0)
(3 8.64781e-16 0)
(3 1.24467e-15 0)
(3 1.52766e-15 0)
(3 1.57494e-15 0)
(3 1.03658e-15 0)
(3 7.4675e-16 0)
(3 1.23498e-15 0)
(3 1.85134e-15 0)
(3 1.7436e-15 0)
(3 1.64933e-15 0)
(3 7.69234e-16 0)
(3 -6.6273e-16 0)
(3 -8.17115e-16 0)
(3 9.352e-17 0)
(3 1.96802e-16 0)
(3 3.21437e-16 0)
(3 7.53389e-16 0)
(3 1.33959e-15 0)
(3 1.62431e-15 0)
(3 2.21276e-15 0)
(3 2.70915e-15 0)
(3 1.86886e-15 0)
(3 1.45612e-15 0)
(3 1.0087e-15 0)
(3 8.09294e-16 0)
(3 -6.64638e-17 0)
(3 -1.67914e-16 0)
(3 1.43297e-15 0)
(3 3.09835e-15 0)
(3 3.77197e-15 0)
(3 4.20139e-15 0)
(3 3.49662e-15 0)
(3 2.76196e-15 0)
(3 3.13539e-15 0)
(3 -1.34134e-15 0)
(3 -3.36011e-15 0)
(3 -3.71328e-15 0)
(3 -3.95591e-15 0)
(3 -1.60406e-16 0)
(3 -1.11431e-16 0)
(3 1.26585e-16 0)
(3 3.5711e-16 0)
(3 6.60925e-16 0)
(3 4.31481e-16 0)
(3 -4.82844e-17 0)
(3 1.77245e-17 0)
(3 -6.9396e-17 0)
(3 6.93746e-17 0)
(3 -1.52197e-16 0)
(3 -4.01385e-16 0)
(3 5.54032e-17 0)
(3 1.07078e-15 0)
(3 1.40877e-15 0)
(3 1.95719e-15 0)
(3 8.46097e-16 0)
(3 1.3622e-16 0)
(3 -9.41952e-17 0)
(3 -3.22882e-16 0)
(3 9.35806e-17 0)
(3 2.12027e-16 0)
(3 -3.02483e-16 0)
(3 -4.06252e-17 0)
(3 2.15926e-16 0)
(3 2.48682e-16 0)
(3 7.35752e-16 0)
(3 1.38846e-15 0)
(3 2.31014e-15 0)
(3 2.4942e-15 0)
(3 1.62598e-15 0)
(3 1.86084e-15 0)
(3 1.65416e-15 0)
(3 1.22003e-15 0)
(3 8.844e-17 0)
(3 -2.95976e-16 0)
(3 7.24032e-17 0)
(3 9.8971e-16 0)
(3 1.42049e-15 0)
(3 1.32791e-15 0)
(3 1.51422e-15 0)
(3 1.17128e-15 0)
(3 1.77085e-16 0)
(3 -5.12495e-16 0)
(3 -2.05777e-15 0)
(3 -2.59735e-15 0)
(3 -2.18802e-15 0)
(3 -1.17807e-15 0)
(3 -1.63767e-16 0)
(3 4.68273e-17 0)
(3 1.82645e-15 0)
(3 2.91154e-15 0)
(3 2.86596e-15 0)
(3 2.84014e-15 0)
(3 3.75477e-15 0)
(3 2.66528e-15 0)
(3 1.54169e-16 0)
(3 -1.53487e-15 0)
(3 -1.58239e-15 0)