/*--------------------------------*- C++ -*----------------------------------*\
  =========                 |
  \\      /  F ield         | OpenFOAM: The Open Source CFD Toolbox
   \\    /   O peration     | Website:  https://openfoam.org
    \\  /    A nd           | Version:  7
     \\/     M anipulation  |
\*---------------------------------------------------------------------------*/
FoamFile
{
    version     2.0;
    format      ascii;
    class       volVectorField;
    location    "3.3";
    object      U;
}
// * * * * * * * * * * * * * * * * * * * * * * * * * * * * * * * * * * * * * //

dimensions      [0 1 -1 0 0 0 0];

internalField   nonuniform List<vector> 
73728
(
(3 1.80384e-17 0)
(3 1.16582e-17 0)
(3 7.16893e-18 0)
(3 -1.364e-16 0)
(3 -2.61873e-16 0)
(3 -3.81359e-16 0)
(3 -5.72175e-16 0)
(3 -7.39954e-16 0)
(3 7.98619e-17 0)
(3 1.0366e-15 0)
(3 2.89652e-16 0)
(3 3.04296e-16 0)
(3 4.08633e-16 0)
(3 4.03753e-16 0)
(3 4.14017e-16 0)
(3 4.38809e-17 0)
(3 -5.53224e-16 0)
(3 -8.48884e-16 0)
(3 -9.50132e-16 0)
(3 -7.03406e-16 0)
(3 -8.70037e-16 0)
(3 -5.03332e-16 0)
(3 1.84904e-16 0)
(3 5.41966e-16 0)
(3 7.25292e-16 0)
(3 1.35423e-15 0)
(3 1.29575e-15 0)
(3 1.33963e-15 0)
(3 1.2872e-15 0)
(3 9.84393e-16 0)
(3 9.78821e-16 0)
(3 5.50941e-16 0)
(3 3.55756e-16 0)
(3 5.30163e-16 0)
(3 7.1164e-16 0)
(3 -9.56136e-18 0)
(3 -1.52524e-16 0)
(3 1.3495e-16 0)
(3 -9.91489e-17 0)
(3 2.90764e-16 0)
(3 2.53492e-16 0)
(3 -1.69733e-16 0)
(3 -3.94683e-16 0)
(3 -3.541e-16 0)
(3 -1.94823e-16 0)
(3 -3.81161e-16 0)
(3 -1.2581e-15 0)
(3 -1.18457e-15 0)
(3 -8.74381e-16 0)
(3 -6.48485e-16 0)
(3 -1.1249e-15 0)
(3 -1.9482e-15 0)
(3 -1.37401e-15 0)
(3 -1.65833e-16 0)
(3 1.65716e-16 0)
(3 2.92216e-16 0)
(3 3.66619e-16 0)
(3 8.91004e-16 0)
(3 5.68132e-16 0)
(3 4.45246e-16 0)
(3 4.40885e-16 0)
(3 4.71078e-16 0)
(3 2.94213e-16 0)
(3 4.65796e-16 0)
(3 8.09853e-16 0)
(3 1.03091e-15 0)
(3 1.38395e-15 0)
(3 9.93661e-16 0)
(3 7.91607e-16 0)
(3 1.09602e-15 0)
(3 1.58795e-15 0)
(3 1.82326e-15 0)
(3 1.30569e-15 0)
(3 8.77014e-16 0)
(3 4.50749e-16 0)
(3 2.11648e-16 0)
(3 1.42392e-16 0)
(3 -1.20166e-17 0)
(3 -5.71982e-16 0)
(3 -7.37e-16 0)
(3 -4.81801e-16 0)
(3 -3.37694e-16 0)
(3 2.05284e-16 0)
(3 6.5751e-17 0)
(3 -1.36984e-16 0)
(3 -1.63583e-16 0)
(3 -1.27814e-17 0)
(3 -5.70269e-17 0)
(3 -1.40858e-16 0)
(3 -3.0158e-16 0)
(3 -2.38295e-16 0)
(3 -5.49435e-17 0)
(3 1.62778e-16 0)
(3 3.79468e-16 0)
(3 6.88681e-16 0)
(3 6.26786e-16 0)
(3 -1.00439e-17 0)
(3 -6.94633e-17 0)
(3 -4.99737e-17 0)
(3 -1.70713e-16 0)
(3 -3.39903e-16 0)
(3 -7.94939e-16 0)
(3 -7.09429e-16 0)
(3 -5.70719e-16 0)
(3 3.93913e-16 0)
(3 1.37468e-15 0)
(3 6.12412e-16 0)
(3 6.13255e-18 0)
(3 -2.05658e-16 0)
(3 -2.76044e-16 0)
(3 -4.3158e-16 0)
(3 -6.78855e-16 0)
(3 -1.1823e-15 0)
(3 -1.76843e-15 0)
(3 -8.35447e-16 0)
(3 -6.48419e-17 0)
(3 -1.28514e-16 0)
(3 -1.95021e-16 0)
(3 5.23029e-16 0)
(3 1.44767e-15 0)
(3 2.08148e-15 0)
(3 3.12227e-15 0)
(3 2.75239e-15 0)
(3 1.78822e-15 0)
(3 1.43857e-15 0)
(3 5.72057e-16 0)
(3 3.29281e-16 0)
(3 2.86493e-16 0)
(3 9.91355e-16 0)
(3 2.11555e-15 0)
(3 2.31935e-15 0)
(3 8.98002e-16 0)
(3 5.87796e-16 0)
(3 7.02366e-16 0)
(3 2.75186e-16 0)
(3 3.09848e-16 0)
(3 1.78171e-16 0)
(3 -1.02197e-16 0)
(3 -1.35771e-15 0)
(3 -1.67538e-15 0)
(3 -1.7142e-15 0)
(3 -2.46323e-15 0)
(3 -2.1405e-15 0)
(3 -9.99656e-16 0)
(3 -4.95848e-16 0)
(3 -1.49626e-15 0)
(3 -1.7657e-15 0)
(3 -2.18736e-15 0)
(3 -1.7427e-15 0)
(3 -5.3163e-16 0)
(3 -5.3867e-17 0)
(3 9.34271e-16 0)
(3 1.82606e-15 0)
(3 1.14777e-15 0)
(3 -5.40939e-16 0)
(3 -5.29891e-16 0)
(3 1.62689e-16 0)
(3 9.37817e-16 0)
(3 5.41216e-16 0)
(3 1.12061e-16 0)
(3 4.92858e-16 0)
(3 8.91705e-16 0)
(3 2.44633e-15 0)
(3 2.85106e-15 0)
(3 2.76283e-15 0)
(3 2.25439e-15 0)
(3 2.93622e-15 0)
(3 3.82723e-15 0)
(3 2.35754e-15 0)
(3 1.66465e-15 0)
(3 1.34004e-15 0)
(3 1.30108e-15 0)
(3 3.10964e-16 0)
(3 -6.93885e-17 0)
(3 -1.70518e-15 0)
(3 -2.3055e-15 0)
(3 -1.23977e-15 0)
(3 -5.52317e-16 0)
(3 -9.10597e-17 0)
(3 -1.23634e-16 0)
(3 1.88528e-17 0)
(3 -1.03486e-16 0)
(3 2.1739e-18 0)
(3 1.95377e-16 0)
(3 -7.38679e-16 0)
(3 -9.89871e-16 0)
(3 -4.26368e-16 0)
(3 -2.86199e-16 0)
(3 -2.27982e-16 0)
(3 -1.37994e-16 0)
(3 3.12389e-16 0)
(3 1.84312e-16 0)
(3 -4.3731e-17 0)
(3 1.62823e-16 0)
(3 -4.53651e-16 0)
(3 -9.56804e-16 0)
(3 -1.38143e-15 0)
(3 -1.27821e-15 0)
(3 -3.5792e-16 0)
(3 1.17531e-16 0)
(3 9.22743e-16 0)
(3 1.22553e-15 0)
(3 1.93695e-15 0)
(3 7.02037e-16 0)
(3 -5.64295e-16 0)
(3 -7.50911e-16 0)
(3 -1.74092e-15 0)
(3 -2.29657e-15 0)
(3 -2.31001e-15 0)
(3 -2.74871e-15 0)
(3 -2.69773e-15 0)
(3 -1.84586e-15 0)
(3 -1.35951e-15 0)
(3 -6.381e-16 0)
(3 2.1289e-16 0)
(3 5.65879e-16 0)
(3 1.29046e-15 0)
(3 1.29255e-15 0)
(3 1.10365e-15 0)
(3 6.02355e-16 0)
(3 1.02471e-15 0)
(3 -3.75538e-16 0)
(3 -1.21123e-15 0)
(3 -3.57023e-16 0)
(3 8.8283e-16 0)
(3 2.47998e-15 0)
(3 2.37798e-15 0)
(3 2.27638e-15 0)
(3 1.60814e-15 0)
(3 -2.41264e-16 0)
(3 -1.17422e-15 0)
(3 -1.36409e-15 0)
(3 -1.44216e-15 0)
(3 -1.7998e-15 0)
(3 -2.2413e-15 0)
(3 -2.17718e-15 0)
(3 -1.96223e-15 0)
(3 -1.87847e-15 0)
(3 -1.45562e-15 0)
(3 -1.05798e-15 0)
(3 -7.47614e-16 0)
(3 -1.23291e-15 0)
(3 -1.71014e-15 0)
(3 -1.50522e-15 0)
(3 -1.41396e-15 0)
(3 -9.85833e-16 0)
(3 -6.32995e-16 0)
(3 3.1005e-16 0)
(3 1.73919e-15 0)
(3 1.4732e-15 0)
(3 4.01928e-16 0)
(3 -1.01455e-16 0)
(3 8.55069e-17 0)
(3 8.17065e-16 0)
(3 1.1259e-15 0)
(3 6.86942e-16 0)
(3 4.57577e-16 0)
(3 8.59353e-16 0)
(3 2.41206e-15 0)
(3 3.75086e-15 0)
(3 3.82209e-15 0)
(3 3.74504e-15 0)
(3 4.06717e-15 0)
(3 4.39576e-15 0)
(3 3.21306e-15 0)
(3 3.17689e-15 0)
(3 4.07417e-15 0)
(3 3.11656e-15 0)
(3 5.99356e-16 0)
(3 -9.41917e-16 0)
(3 -1.70132e-15 0)
(3 -1.42073e-15 0)
(3 -8.43337e-16 0)
(3 4.69754e-17 0)
(3 6.39476e-17 0)
(3 1.67029e-16 0)
(3 -1.85307e-16 0)
(3 -4.10857e-16 0)
(3 -1.59448e-15 0)
(3 -1.34831e-15 0)
(3 -5.2335e-16 0)
(3 -4.96592e-16 0)
(3 -4.83005e-16 0)
(3 -8.59192e-16 0)
(3 -1.75095e-15 0)
(3 -2.07274e-15 0)
(3 -1.59337e-15 0)
(3 -1.8493e-15 0)
(3 5.60534e-17 0)
(3 -3.44729e-16 0)
(3 -1.57338e-15 0)
(3 -2.43794e-15 0)
(3 -2.08476e-15 0)
(3 -1.32537e-15 0)
(3 -1.19792e-15 0)
(3 -6.72971e-16 0)
(3 5.37602e-17 0)
(3 7.725e-16 0)
(3 1.79594e-15 0)
(3 1.37362e-15 0)
(3 3.34725e-16 0)
(3 6.13605e-18 0)
(3 -1.08351e-15 0)
(3 -2.14609e-15 0)
(3 -2.15498e-15 0)
(3 -2.20028e-15 0)
(3 -1.94686e-15 0)
(3 -1.59111e-15 0)
(3 -1.63559e-15 0)
(3 -6.43582e-16 0)
(3 -3.0293e-16 0)
(3 -4.99333e-16 0)
(3 -5.47668e-16 0)
(3 -3.69925e-16 0)
(3 3.69174e-16 0)
(3 7.97129e-16 0)
(3 6.44114e-16 0)
(3 4.85538e-16 0)
(3 5.94127e-16 0)
(3 2.90661e-16 0)
(3 4.49472e-16 0)
(3 1.21352e-15 0)
(3 3.02631e-15 0)
(3 3.35581e-15 0)
(3 3.24199e-15 0)
(3 1.63598e-15 0)
(3 -3.84912e-16 0)
(3 -7.10957e-16 0)
(3 -1.23746e-15 0)
(3 -2.68852e-15 0)
(3 -2.89145e-15 0)
(3 -2.24117e-15 0)
(3 -1.90455e-15 0)
(3 -9.64133e-16 0)
(3 -5.01535e-16 0)
(3 6.35476e-17 0)
(3 -2.40818e-16 0)
(3 -6.54158e-16 0)
(3 -8.66052e-16 0)
(3 -1.01093e-15 0)
(3 -9.91636e-16 0)
(3 -9.6117e-16 0)
(3 -4.74973e-16 0)
(3 6.04304e-16 0)
(3 6.26038e-16 0)
(3 3.51748e-16 0)
(3 2.09966e-16 0)
(3 -2.76243e-16 0)
(3 -1.03224e-15 0)
(3 -1.28567e-15 0)
(3 -8.98248e-16 0)
(3 -4.63261e-16 0)
(3 -2.34169e-16 0)
(3 5.12313e-16 0)
(3 3.2473e-15 0)
(3 4.02275e-15 0)
(3 3.88151e-15 0)
(3 4.40652e-15 0)
(3 5.32072e-15 0)
(3 3.65699e-15 0)
(3 2.92542e-15 0)
(3 2.70454e-15 0)
(3 2.897e-15 0)
(3 2.04809e-15 0)
(3 1.08806e-15 0)
(3 5.87103e-16 0)
(3 8.25436e-16 0)
(3 1.06047e-15 0)
(3 1.17303e-15 0)
(3 1.6253e-15 0)
(3 1.3359e-15 0)
(3 1.42684e-15 0)
(3 -1.65384e-15 0)
(3 -2.775e-15 0)
(3 -2.95171e-15 0)
(3 -2.93214e-15 0)
(3 -1.17391e-15 0)
(3 7.06814e-17 0)
(3 -2.70196e-16 0)
(3 -1.3512e-15 0)
(3 -1.39963e-15 0)
(3 -1.6977e-15 0)
(3 -1.89131e-15 0)
(3 -1.94651e-15 0)
(3 -1.20798e-16 0)
(3 -5.92289e-16 0)
(3 -5.4965e-16 0)
(3 -6.10263e-16 0)
(3 -2.15015e-16 0)
(3 -1.69238e-16 0)
(3 -3.17987e-16 0)
(3 -1.29978e-15 0)
(3 -9.86689e-16 0)
(3 -2.3298e-16 0)
(3 1.11336e-15 0)
(3 1.37705e-15 0)
(3 7.09801e-16 0)
(3 9.33629e-17 0)
(3 -4.23931e-17 0)
(3 -4.32075e-16 0)
(3 -8.52401e-16 0)
(3 -1.07662e-15 0)
(3 -1.47415e-15 0)
(3 -1.87615e-15 0)
(3 -1.17004e-15 0)
(3 -5.33028e-16 0)
(3 1.98889e-16 0)
(3 3.546e-16 0)
(3 4.13517e-17 0)
(3 -2.43138e-16 0)
(3 3.2436e-16 0)
(3 2.03399e-15 0)
(3 2.32519e-15 0)
(3 2.59052e-15 0)
(3 1.52937e-15 0)
(3 1.19153e-15 0)
(3 1.24307e-15 0)
(3 2.10094e-15 0)
(3 2.74992e-15 0)
(3 3.43263e-15 0)
(3 3.53018e-15 0)
(3 2.38526e-15 0)
(3 -2.17956e-16 0)
(3 -1.45489e-15 0)
(3 -1.99048e-15 0)
(3 -1.94521e-15 0)
(3 -2.27449e-15 0)
(3 -2.86247e-15 0)
(3 -2.47283e-15 0)
(3 -1.59891e-15 0)
(3 -6.20594e-16 0)
(3 3.5727e-16 0)
(3 7.37048e-16 0)
(3 3.46894e-16 0)
(3 1.12919e-16 0)
(3 -7.08232e-16 0)
(3 -8.89989e-16 0)
(3 -4.52735e-16 0)
(3 4.29101e-16 0)
(3 2.17627e-16 0)
(3 -7.30091e-16 0)
(3 -1.19248e-15 0)
(3 -6.6812e-16 0)
(3 -5.11709e-16 0)
(3 -8.95231e-16 0)
(3 -1.73497e-15 0)
(3 -1.81511e-15 0)
(3 -1.62427e-15 0)
(3 -7.50798e-16 0)
(3 1.19964e-16 0)
(3 6.0268e-16 0)
(3 1.2989e-15 0)
(3 2.59278e-15 0)
(3 4.0767e-15 0)
(3 3.76325e-15 0)
(3 3.07814e-15 0)
(3 2.44515e-15 0)
(3 4.23183e-16 0)
(3 8.425e-17 0)
(3 -4.7386e-16 0)
(3 1.44333e-15 0)
(3 2.5922e-15 0)
(3 3.38831e-15 0)
(3 3.50625e-15 0)
(3 3.73733e-15 0)
(3 4.13707e-15 0)
(3 3.44232e-15 0)
(3 6.18764e-16 0)
(3 -1.32498e-15 0)
(3 -2.28923e-15 0)
(3 -2.53057e-15 0)
(3 -2.29438e-15 0)
(3 -1.80998e-15 0)
(3 -1.61271e-15 0)
(3 -1.94979e-15 0)
(3 -2.20093e-15 0)
(3 -1.75959e-15 0)
(3 -1.46254e-15 0)
(3 -1.92811e-15 0)
(3 -1.89003e-15 0)
(3 -1.3361e-16 0)
(3 -1.01416e-16 0)
(3 4.69312e-16 0)
(3 1.04158e-15 0)
(3 5.42794e-16 0)
(3 1.64842e-16 0)
(3 -1.84121e-17 0)
(3 -1.14106e-15 0)
(3 -1.4761e-15 0)
(3 1.32825e-16 0)
(3 1.20132e-15 0)
(3 7.59845e-16 0)
(3 -3.15238e-16 0)
(3 -8.97957e-16 0)
(3 -8.17173e-16 0)
(3 -9.39925e-16 0)
(3 -1.06966e-15 0)
(3 -7.70166e-16 0)
(3 -1.00231e-15 0)
(3 -1.3405e-15 0)
(3 -7.78753e-16 0)
(3 -8.33226e-16 0)
(3 -8.78001e-16 0)
(3 1.19464e-17 0)
(3 -2.38821e-16 0)
(3 -5.29174e-16 0)
(3 6.44641e-16 0)
(3 1.74753e-15 0)
(3 2.14468e-15 0)
(3 2.01113e-15 0)
(3 1.40527e-15 0)
(3 1.89856e-15 0)
(3 2.84606e-15 0)
(3 2.88042e-15 0)
(3 2.61188e-15 0)
(3 2.92056e-15 0)
(3 3.22503e-15 0)
(3 3.01314e-15 0)
(3 1.42605e-15 0)
(3 2.04835e-16 0)
(3 1.52682e-16 0)
(3 5.27009e-16 0)
(3 5.04439e-16 0)
(3 -1.12583e-15 0)
(3 -1.92529e-15 0)
(3 -8.44803e-16 0)
(3 3.73745e-17 0)
(3 -3.29634e-17 0)
(3 4.44516e-16 0)
(3 2.56916e-16 0)
(3 -6.73634e-16 0)
(3 -8.4061e-16 0)
(3 -8.76281e-16 0)
(3 -6.63742e-16 0)
(3 -5.09661e-16 0)
(3 -1.21607e-15 0)
(3 -1.72177e-15 0)
(3 -2.01407e-15 0)
(3 -2.1004e-15 0)
(3 -2.78355e-15 0)
(3 -2.2806e-15 0)
(3 -2.36035e-15 0)
(3 -2.10304e-15 0)
(3 -1.49347e-15 0)
(3 -2.56356e-16 0)
(3 -1.49712e-16 0)
(3 -5.76278e-16 0)
(3 5.87164e-16 0)
(3 2.95701e-15 0)
(3 3.59209e-15 0)
(3 1.80386e-15 0)
(3 2.05963e-15 0)
(3 8.11663e-16 0)
(3 -4.34306e-16 0)
(3 9.18442e-17 0)
(3 7.76259e-16 0)
(3 1.549e-15 0)
(3 2.38508e-15 0)
(3 2.49049e-15 0)
(3 2.57402e-15 0)
(3 3.03545e-15 0)
(3 4.20963e-15 0)
(3 4.12632e-15 0)
(3 -1.61673e-16 0)
(3 -2.68327e-15 0)
(3 -2.33274e-15 0)
(3 -1.76783e-15 0)
(3 -1.38969e-15 0)
(3 -1.99594e-15 0)
(3 -3.04429e-15 0)
(3 -3.08492e-15 0)
(3 -3.25198e-15 0)
(3 -3.38404e-15 0)
(3 -2.80142e-15 0)
(3 -3.12705e-15 0)
(3 -2.23822e-15 0)
(3 8.6584e-18 0)
(3 -2.71697e-17 0)
(3 8.7903e-17 0)
(3 4.52571e-16 0)
(3 9.48974e-16 0)
(3 7.8228e-16 0)
(3 5.03747e-16 0)
(3 5.76237e-17 0)
(3 3.80142e-17 0)
(3 2.96347e-16 0)
(3 9.63888e-16 0)
(3 8.11512e-17 0)
(3 -8.63473e-16 0)
(3 -1.13397e-15 0)
(3 -1.05155e-15 0)
(3 -1.15077e-15 0)
(3 -1.00887e-15 0)
(3 -4.79676e-16 0)
(3 4.59515e-16 0)
(3 2.52296e-16 0)
(3 -6.11576e-16 0)
(3 -1.30454e-15 0)
(3 -1.93274e-15 0)
(3 -1.41465e-15 0)
(3 -6.83004e-16 0)
(3 9.20104e-16 0)
(3 1.10305e-15 0)
(3 8.33051e-16 0)
(3 1.87204e-16 0)
(3 2.42009e-16 0)
(3 4.89712e-16 0)
(3 1.07506e-15 0)
(3 2.5657e-15 0)
(3 2.40871e-15 0)
(3 2.40223e-15 0)
(3 2.57922e-15 0)
(3 2.79052e-15 0)
(3 2.12875e-15 0)
(3 2.02366e-15 0)
(3 1.98847e-15 0)
(3 1.30433e-15 0)
(3 7.75556e-16 0)
(3 6.95554e-18 0)
(3 -6.17554e-16 0)
(3 -7.11903e-16 0)
(3 4.06053e-16 0)
(3 9.1707e-16 0)
(3 7.06849e-16 0)
(3 1.18227e-16 0)
(3 -1.40556e-15 0)
(3 -1.8121e-15 0)
(3 -5.59637e-16 0)
(3 4.12691e-16 0)
(3 -4.27629e-17 0)
(3 -8.03282e-16 0)
(3 -1.39126e-15 0)
(3 -1.88128e-15 0)
(3 -2.19252e-15 0)
(3 -3.00903e-15 0)
(3 -3.67392e-15 0)
(3 -4.61282e-15 0)
(3 -3.62508e-15 0)
(3 -2.18434e-15 0)
(3 -8.42905e-16 0)
(3 -6.00613e-16 0)
(3 9.12387e-17 0)
(3 4.54201e-16 0)
(3 1.70204e-15 0)
(3 1.16676e-15 0)
(3 3.3809e-16 0)
(3 3.84165e-17 0)
(3 -1.78389e-16 0)
(3 8.07327e-16 0)
(3 1.85587e-15 0)
(3 8.35768e-16 0)
(3 1.24829e-15 0)
(3 1.96094e-15 0)
(3 1.41382e-15 0)
(3 1.26306e-15 0)
(3 1.05226e-15 0)
(3 9.57522e-16 0)
(3 1.35614e-15 0)
(3 1.34255e-15 0)
(3 3.027e-16 0)
(3 -6.62057e-16 0)
(3 -7.82864e-16 0)
(3 -1.15725e-15 0)
(3 -1.99586e-15 0)
(3 -2.51704e-15 0)
(3 -2.65825e-15 0)
(3 -2.7119e-15 0)
(3 -3.20814e-15 0)
(3 -3.6344e-15 0)
(3 -3.41233e-15 0)
(3 -4.1434e-15 0)
(3 -2.10163e-15 0)
(3 1.39104e-16 0)
(3 1.5297e-16 0)
(3 3.64678e-16 0)
(3 2.38112e-16 0)
(3 2.40794e-16 0)
(3 4.82388e-16 0)
(3 6.98642e-16 0)
(3 6.78898e-16 0)
(3 2.80339e-16 0)
(3 -4.35065e-16 0)
(3 -8.34698e-16 0)
(3 -2.38773e-16 0)
(3 1.61103e-16 0)
(3 4.78621e-16 0)
(3 2.48126e-16 0)
(3 -1.37038e-16 0)
(3 -2.77125e-16 0)
(3 -6.78815e-16 0)
(3 -2.52371e-17 0)
(3 2.5572e-16 0)
(3 1.61525e-16 0)
(3 -7.89284e-16 0)
(3 -1.934e-15 0)
(3 -1.89582e-15 0)
(3 -9.80083e-16 0)
(3 -1.55176e-16 0)
(3 3.44488e-16 0)
(3 -7.50632e-17 0)
(3 -3.17539e-16 0)
(3 -3.55568e-16 0)
(3 -4.95533e-16 0)
(3 -2.91958e-16 0)
(3 3.32096e-16 0)
(3 7.69024e-16 0)
(3 9.86235e-16 0)
(3 1.09855e-15 0)
(3 8.3219e-16 0)
(3 8.48599e-16 0)
(3 1.50852e-15 0)
(3 1.6383e-15 0)
(3 1.56175e-15 0)
(3 1.04187e-15 0)
(3 6.82026e-16 0)
(3 3.39877e-16 0)
(3 5.8388e-16 0)
(3 1.31612e-15 0)
(3 1.61288e-15 0)
(3 1.41441e-15 0)
(3 4.36498e-16 0)
(3 3.73736e-17 0)
(3 7.12394e-16 0)
(3 3.13826e-16 0)
(3 -7.96857e-17 0)
(3 -4.51636e-16 0)
(3 -5.96856e-16 0)
(3 -2.54677e-16 0)
(3 5.64621e-17 0)
(3 -4.21649e-16 0)
(3 -1.40555e-15 0)
(3 -1.27934e-15 0)
(3 -1.65146e-15 0)
(3 -1.80177e-15 0)
(3 -1.59193e-15 0)
(3 -1.29093e-15 0)
(3 -1.10989e-15 0)
(3 -1.32823e-16 0)
(3 1.1911e-15 0)
(3 1.7813e-15 0)
(3 1.48595e-15 0)
(3 -9.27208e-17 0)
(3 -3.84596e-16 0)
(3 3.64218e-16 0)
(3 1.33329e-15 0)
(3 2.01313e-15 0)
(3 1.87685e-15 0)
(3 5.22199e-16 0)
(3 6.89996e-17 0)
(3 -3.9445e-16 0)
(3 -4.48009e-16 0)
(3 -5.55685e-16 0)
(3 -1.18728e-16 0)
(3 -1.36931e-16 0)
(3 2.21121e-16 0)
(3 -3.62835e-17 0)
(3 -8.02214e-16 0)
(3 -1.46409e-15 0)
(3 -2.45681e-15 0)
(3 -3.61104e-15 0)
(3 -2.96815e-15 0)
(3 -2.38185e-15 0)
(3 -2.14838e-15 0)
(3 -3.3848e-15 0)
(3 -4.06152e-15 0)
(3 -4.17717e-15 0)
(3 -4.71385e-15 0)
(3 -2.61419e-15 0)
(3 2.17833e-16 0)
(3 4.59208e-16 0)
(3 7.37965e-16 0)
(3 4.01032e-16 0)
(3 -2.64258e-16 0)
(3 -7.02392e-16 0)
(3 -8.30084e-16 0)
(3 -4.01109e-16 0)
(3 -3.30201e-16 0)
(3 -4.92256e-16 0)
(3 -1.09092e-15 0)
(3 -3.28943e-16 0)
(3 4.2182e-16 0)
(3 3.87287e-16 0)
(3 3.31249e-16 0)
(3 4.41433e-16 0)
(3 1.63981e-16 0)
(3 -1.47878e-15 0)
(3 -1.68708e-15 0)
(3 -1.14484e-15 0)
(3 -1.10705e-15 0)
(3 -1.09581e-15 0)
(3 -8.412e-16 0)
(3 -4.88536e-16 0)
(3 -3.42665e-16 0)
(3 -1.18049e-16 0)
(3 4.74111e-17 0)
(3 1.86208e-16 0)
(3 8.21375e-17 0)
(3 -5.0604e-17 0)
(3 -6.64826e-16 0)
(3 -8.84374e-16 0)
(3 -1.09243e-15 0)
(3 -8.67614e-16 0)
(3 -5.99344e-16 0)
(3 1.51153e-17 0)
(3 5.96191e-16 0)
(3 7.0091e-16 0)
(3 4.14533e-16 0)
(3 6.62645e-16 0)
(3 1.14234e-15 0)
(3 1.70231e-15 0)
(3 2.40482e-15 0)
(3 2.45429e-15 0)
(3 2.30801e-15 0)
(3 1.73188e-15 0)
(3 1.4998e-15 0)
(3 7.71116e-16 0)
(3 5.38173e-16 0)
(3 1.20291e-15 0)
(3 2.15216e-15 0)
(3 1.73669e-15 0)
(3 -6.09668e-16 0)
(3 -1.30005e-15 0)
(3 -6.17111e-16 0)
(3 -2.57164e-16 0)
(3 -1.76272e-16 0)
(3 -2.5868e-16 0)
(3 8.69058e-17 0)
(3 2.83554e-16 0)
(3 1.32877e-15 0)
(3 7.32747e-16 0)
(3 -1.04118e-16 0)
(3 -2.58178e-16 0)
(3 -5.46125e-16 0)
(3 -7.47785e-16 0)
(3 -2.24466e-16 0)
(3 -5.47681e-16 0)
(3 -7.00167e-16 0)
(3 -3.53553e-16 0)
(3 -5.0789e-16 0)
(3 -8.02772e-19 0)
(3 -4.04376e-16 0)
(3 -2.44587e-16 0)
(3 1.99378e-16 0)
(3 -6.21596e-16 0)
(3 -9.46293e-16 0)
(3 -7.42451e-16 0)
(3 -1.17805e-15 0)
(3 -1.55422e-15 0)
(3 -1.32737e-15 0)
(3 -1.15487e-15 0)
(3 -7.23121e-16 0)
(3 -1.40184e-16 0)
(3 -1.56208e-15 0)
(3 -2.18485e-15 0)
(3 -2.49826e-15 0)
(3 -2.52602e-15 0)
(3 -2.68661e-15 0)
(3 -2.69499e-15 0)
(3 -3.15021e-15 0)
(3 -2.90177e-15 0)
(3 -2.09665e-15 0)
(3 -2.4517e-15 0)
(3 -2.46221e-15 0)
(3 -2.22523e-15 0)
(3 -2.30108e-17 0)
(3 3.22678e-16 0)
(3 3.85331e-16 0)
(3 3.11083e-16 0)
(3 2.9803e-18 0)
(3 -5.1979e-16 0)
(3 -5.27442e-16 0)
(3 -1.57253e-16 0)
(3 2.21365e-16 0)
(3 -5.72823e-16 0)
(3 -1.00395e-15 0)
(3 -1.15933e-15 0)
(3 -8.26077e-16 0)
(3 -2.39828e-16 0)
(3 3.15145e-16 0)
(3 6.17839e-16 0)
(3 -6.91247e-16 0)
(3 -1.43536e-15 0)
(3 -1.83072e-15 0)
(3 -1.313e-15 0)
(3 -1.31444e-15 0)
(3 -7.85528e-16 0)
(3 3.19639e-17 0)
(3 3.23654e-16 0)
(3 1.02786e-16 0)
(3 -7.54667e-18 0)
(3 7.42476e-17 0)
(3 7.11691e-16 0)
(3 1.53561e-15 0)
(3 1.25802e-15 0)
(3 1.24684e-15 0)
(3 6.45838e-16 0)
(3 -1.43863e-15 0)
(3 -2.68986e-15 0)
(3 -1.93138e-15 0)
(3 -8.92581e-16 0)
(3 -5.28589e-16 0)
(3 2.30735e-16 0)
(3 1.24137e-16 0)
(3 8.28605e-16 0)
(3 1.03457e-15 0)
(3 1.38403e-15 0)
(3 2.0932e-15 0)
(3 2.55251e-15 0)
(3 2.92073e-15 0)
(3 2.78478e-15 0)
(3 2.60266e-15 0)
(3 2.09926e-15 0)
(3 2.19992e-15 0)
(3 2.23951e-15 0)
(3 2.63558e-15 0)
(3 2.40571e-15 0)
(3 1.84364e-15 0)
(3 1.00896e-15 0)
(3 6.99788e-17 0)
(3 -6.54804e-16 0)
(3 -1.08588e-15 0)
(3 -7.6812e-16 0)
(3 4.4967e-16 0)
(3 1.11707e-15 0)
(3 3.1869e-15 0)
(3 3.6007e-15 0)
(3 2.61175e-15 0)
(3 9.16663e-16 0)
(3 -8.983e-16 0)
(3 -1.86984e-15 0)
(3 -2.123e-15 0)
(3 -2.03022e-15 0)
(3 -1.70422e-15 0)
(3 -1.97919e-15 0)
(3 -1.66911e-15 0)
(3 -1.24861e-15 0)
(3 -1.28439e-16 0)
(3 -8.20095e-17 0)
(3 -2.74594e-16 0)
(3 -6.85486e-16 0)
(3 -5.10233e-16 0)
(3 -4.12238e-16 0)
(3 -3.67344e-16 0)
(3 -7.12927e-16 0)
(3 -1.61646e-15 0)
(3 -1.79014e-15 0)
(3 -1.8758e-15 0)
(3 -1.69068e-15 0)
(3 -4.36815e-16 0)
(3 6.4575e-16 0)
(3 5.43666e-16 0)
(3 -1.07306e-15 0)
(3 -2.21389e-15 0)
(3 -3.55302e-15 0)
(3 -4.59048e-15 0)
(3 -4.33332e-15 0)
(3 -2.93333e-15 0)
(3 -2.25767e-15 0)
(3 -2.63446e-15 0)
(3 -2.85585e-15 0)
(3 -1.41398e-17 0)
(3 1.92948e-16 0)
(3 -1.39319e-16 0)
(3 -2.89504e-16 0)
(3 1.2251e-16 0)
(3 3.88438e-16 0)
(3 3.92745e-16 0)
(3 1.43756e-16 0)
(3 3.62213e-16 0)
(3 1.1712e-16 0)
(3 -1.60636e-15 0)
(3 -2.11472e-15 0)
(3 -1.97929e-15 0)
(3 -6.8313e-16 0)
(3 -5.73065e-16 0)
(3 -1.00771e-15 0)
(3 -6.72481e-16 0)
(3 -9.60036e-16 0)
(3 -6.36027e-16 0)
(3 -5.96284e-16 0)
(3 -5.24957e-16 0)
(3 -9.9588e-17 0)
(3 -4.94183e-16 0)
(3 -1.19646e-15 0)
(3 -1.37314e-15 0)
(3 -1.40064e-15 0)
(3 -4.59362e-16 0)
(3 -2.41201e-16 0)
(3 2.98023e-16 0)
(3 7.7148e-16 0)
(3 5.17522e-16 0)
(3 -9.31792e-16 0)
(3 -1.55948e-15 0)
(3 -1.90376e-15 0)
(3 -1.72365e-15 0)
(3 -1.8546e-15 0)
(3 -1.54594e-15 0)
(3 -1.28492e-15 0)
(3 -3.82866e-16 0)
(3 8.00674e-17 0)
(3 4.65073e-16 0)
(3 8.85501e-16 0)
(3 2.01279e-15 0)
(3 2.80928e-15 0)
(3 3.02787e-15 0)
(3 2.60121e-15 0)
(3 1.34029e-15 0)
(3 2.24201e-15 0)
(3 3.32664e-15 0)
(3 3.56459e-15 0)
(3 3.41696e-15 0)
(3 3.48597e-15 0)
(3 2.28816e-15 0)
(3 1.47781e-15 0)
(3 -4.22905e-16 0)
(3 -2.17623e-15 0)
(3 -1.67709e-15 0)
(3 -7.51488e-16 0)
(3 1.41841e-16 0)
(3 1.07294e-15 0)
(3 1.65118e-15 0)
(3 2.21349e-15 0)
(3 2.07609e-15 0)
(3 1.76487e-15 0)
(3 5.62958e-16 0)
(3 -1.2882e-15 0)
(3 -1.10334e-15 0)
(3 -1.48745e-15 0)
(3 -2.10418e-15 0)
(3 -2.26025e-15 0)
(3 -1.34417e-15 0)
(3 -5.15475e-16 0)
(3 4.96937e-16 0)
(3 3.3644e-16 0)
(3 2.40513e-16 0)
(3 2.78463e-16 0)
(3 4.79395e-16 0)
(3 8.97475e-16 0)
(3 1.46146e-15 0)
(3 1.48403e-15 0)
(3 9.25933e-17 0)
(3 -1.85804e-15 0)
(3 -1.82964e-15 0)
(3 -1.3878e-16 0)
(3 1.46752e-15 0)
(3 1.27224e-15 0)
(3 7.33229e-16 0)
(3 -1.26465e-15 0)
(3 -2.73249e-15 0)
(3 -5.90519e-15 0)
(3 -6.4716e-15 0)
(3 -5.74161e-15 0)
(3 -3.93671e-15 0)
(3 -3.7302e-15 0)
(3 -3.3498e-15 0)
(3 -2.89495e-15 0)
(3 -8.61368e-17 0)
(3 -8.44346e-17 0)
(3 -1.04102e-16 0)
(3 -2.01353e-16 0)
(3 6.11528e-17 0)
(3 1.46445e-16 0)
(3 3.98083e-16 0)
(3 8.58034e-17 0)
(3 1.56392e-16 0)
(3 2.75584e-16 0)
(3 -1.53693e-15 0)
(3 -1.99808e-15 0)
(3 -1.82773e-15 0)
(3 -1.30521e-15 0)
(3 -1.34861e-15 0)
(3 -1.57845e-15 0)
(3 -8.82386e-16 0)
(3 4.81406e-16 0)
(3 7.49443e-16 0)
(3 3.67695e-17 0)
(3 -8.95508e-16 0)
(3 -1.05261e-15 0)
(3 -4.86184e-16 0)
(3 -4.16541e-16 0)
(3 2.99978e-16 0)
(3 5.96801e-16 0)
(3 6.67435e-17 0)
(3 -7.60275e-16 0)
(3 -1.67752e-15 0)
(3 -1.40575e-15 0)
(3 -1.70751e-15 0)
(3 -2.15473e-15 0)
(3 -1.76757e-15 0)
(3 -1.24284e-15 0)
(3 -2.4038e-15 0)
(3 -2.24965e-15 0)
(3 -1.41582e-15 0)
(3 -7.47819e-16 0)
(3 -4.9883e-16 0)
(3 -2.99438e-16 0)
(3 4.74987e-16 0)
(3 1.73106e-15 0)
(3 2.39049e-15 0)
(3 2.45203e-15 0)
(3 1.96388e-15 0)
(3 1.06571e-15 0)
(3 8.74935e-16 0)
(3 1.85013e-15 0)
(3 2.08511e-15 0)
(3 2.35063e-15 0)
(3 2.76062e-15 0)
(3 2.79035e-15 0)
(3 2.49991e-15 0)
(3 1.89234e-15 0)
(3 1.52447e-15 0)
(3 1.18808e-15 0)
(3 -6.22648e-17 0)
(3 -5.22322e-16 0)
(3 -7.67447e-16 0)
(3 -1.05355e-15 0)
(3 -9.70213e-16 0)
(3 -8.69138e-16 0)
(3 -5.77842e-16 0)
(3 -3.95891e-16 0)
(3 -1.84388e-16 0)
(3 -4.8589e-16 0)
(3 -1.17578e-15 0)
(3 -1.60278e-15 0)
(3 -2.33022e-15 0)
(3 -2.82783e-15 0)
(3 -2.73315e-15 0)
(3 -2.06008e-15 0)
(3 -1.90013e-15 0)
(3 -5.59154e-16 0)
(3 4.57013e-16 0)
(3 1.39623e-15 0)
(3 1.82087e-15 0)
(3 1.91055e-15 0)
(3 2.48702e-15 0)
(3 1.34434e-15 0)
(3 -1.93472e-16 0)
(3 -7.53926e-16 0)
(3 -4.15877e-16 0)
(3 3.57001e-16 0)
(3 5.67046e-16 0)
(3 1.88309e-16 0)
(3 -1.22356e-15 0)
(3 -2.79018e-15 0)
(3 -3.52106e-15 0)
(3 -4.35686e-15 0)
(3 -4.69472e-15 0)
(3 -4.93196e-15 0)
(3 -5.06904e-15 0)
(3 -4.94891e-15 0)
(3 -3.99963e-15 0)
(3 -2.92412e-15 0)
(3 1.33448e-17 0)
(3 -4.20407e-17 0)
(3 1.54989e-16 0)
(3 1.06029e-16 0)
(3 2.80692e-16 0)
(3 2.11717e-16 0)
(3 -5.56224e-17 0)
(3 1.01695e-16 0)
(3 -4.26889e-16 0)
(3 -7.39227e-16 0)
(3 -3.34783e-16 0)
(3 -6.03498e-17 0)
(3 -5.55565e-16 0)
(3 -3.79569e-16 0)
(3 -4.98521e-16 0)
(3 4.29229e-17 0)
(3 1.99184e-16 0)
(3 3.9151e-16 0)
(3 -1.96554e-17 0)
(3 -9.26436e-17 0)
(3 -4.27184e-16 0)
(3 -1.00433e-15 0)
(3 -3.94042e-16 0)
(3 3.94319e-16 0)
(3 1.06169e-15 0)
(3 9.81126e-16 0)
(3 4.4548e-16 0)
(3 -6.86001e-17 0)
(3 -1.00249e-15 0)
(3 -1.9267e-15 0)
(3 -1.6733e-15 0)
(3 -7.7029e-16 0)
(3 -6.70982e-16 0)
(3 -1.40435e-15 0)
(3 -3.01403e-15 0)
(3 -2.02116e-15 0)
(3 -9.28489e-16 0)
(3 -2.87644e-16 0)
(3 -2.84781e-16 0)
(3 -2.63495e-16 0)
(3 -3.35364e-17 0)
(3 4.52007e-16 0)
(3 3.20757e-16 0)
(3 -3.2189e-16 0)
(3 -4.60984e-16 0)
(3 3.37683e-17 0)
(3 7.77891e-16 0)
(3 1.49779e-15 0)
(3 1.88908e-15 0)
(3 1.37689e-15 0)
(3 1.30292e-15 0)
(3 1.83612e-15 0)
(3 9.9572e-16 0)
(3 2.57219e-16 0)
(3 1.71778e-16 0)
(3 4.64621e-16 0)
(3 1.55147e-15 0)
(3 6.11992e-16 0)
(3 -3.93043e-16 0)
(3 -7.70458e-16 0)
(3 -1.0318e-15 0)
(3 -1.23179e-15 0)
(3 -8.23812e-16 0)
(3 -5.9947e-16 0)
(3 -1.62939e-16 0)
(3 -4.46951e-16 0)
(3 -1.57231e-15 0)
(3 -2.13466e-15 0)
(3 -1.69994e-15 0)
(3 -1.4523e-15 0)
(3 -2.00188e-15 0)
(3 -2.70957e-15 0)
(3 -2.67867e-15 0)
(3 -3.10127e-16 0)
(3 5.46546e-16 0)
(3 5.23203e-16 0)
(3 -1.63381e-16 0)
(3 -7.2094e-16 0)
(3 -6.41813e-16 0)
(3 -7.67971e-16 0)
(3 -1.48623e-15 0)
(3 -1.61783e-15 0)
(3 -1.32396e-15 0)
(3 -5.28913e-16 0)
(3 -4.80594e-16 0)
(3 -1.42705e-15 0)
(3 -3.02608e-15 0)
(3 -3.68126e-15 0)
(3 -3.5312e-15 0)
(3 -3.46122e-15 0)
(3 -3.30494e-15 0)
(3 -4.06971e-15 0)
(3 -4.31305e-15 0)
(3 -4.29104e-15 0)
(3 -3.97477e-15 0)
(3 -2.90539e-15 0)
(3 -1.09282e-16 0)
(3 -3.82076e-16 0)
(3 -9.04522e-16 0)
(3 -7.67951e-16 0)
(3 -5.30651e-16 0)
(3 -3.28392e-16 0)
(3 -2.94846e-16 0)
(3 -3.15529e-16 0)
(3 -2.05466e-16 0)
(3 -3.64358e-17 0)
(3 3.44542e-16 0)
(3 4.15424e-16 0)
(3 4.85388e-16 0)
(3 6.75239e-16 0)
(3 3.55642e-16 0)
(3 1.73839e-17 0)
(3 -4.18216e-16 0)
(3 -2.08278e-15 0)
(3 -2.05298e-15 0)
(3 -1.76432e-15 0)
(3 -3.04828e-16 0)
(3 1.22038e-15 0)
(3 1.52976e-15 0)
(3 1.44562e-15 0)
(3 1.20457e-15 0)
(3 1.04354e-15 0)
(3 8.13374e-16 0)
(3 -1.55483e-16 0)
(3 -1.37726e-15 0)
(3 -1.46849e-15 0)
(3 -1.57548e-15 0)
(3 -5.91315e-16 0)
(3 -3.13683e-16 0)
(3 -9.16115e-16 0)
(3 -1.74366e-15 0)
(3 -6.03213e-16 0)
(3 -1.24632e-16 0)
(3 1.08483e-16 0)
(3 -2.43158e-16 0)
(3 -5.56994e-16 0)
(3 -6.25618e-16 0)
(3 -6.8511e-16 0)
(3 -1.66839e-15 0)
(3 -1.73873e-15 0)
(3 -9.3072e-16 0)
(3 1.01262e-16 0)
(3 -8.49653e-17 0)
(3 -1.17934e-16 0)
(3 6.47904e-16 0)
(3 1.40398e-15 0)
(3 1.41959e-15 0)
(3 1.33927e-15 0)
(3 5.71702e-17 0)
(3 -8.91477e-16 0)
(3 -1.12911e-15 0)
(3 2.09702e-16 0)
(3 9.86484e-16 0)
(3 9.65641e-16 0)
(3 8.49987e-16 0)
(3 7.73676e-16 0)
(3 4.42684e-16 0)
(3 -6.20222e-16 0)
(3 -7.45506e-16 0)
(3 -3.4479e-16 0)
(3 3.55291e-16 0)
(3 1.19541e-15 0)
(3 7.91489e-16 0)
(3 -1.1508e-15 0)
(3 -1.53684e-15 0)
(3 -1.53177e-15 0)
(3 -1.76093e-15 0)
(3 -2.43572e-15 0)
(3 -2.38921e-15 0)
(3 -1.78541e-15 0)
(3 -1.38397e-15 0)
(3 -1.39635e-15 0)
(3 -1.74837e-15 0)
(3 -1.40692e-15 0)
(3 -1.08594e-15 0)
(3 -4.91112e-16 0)
(3 -1.25684e-15 0)
(3 -2.32121e-15 0)
(3 -3.03562e-15 0)
(3 -3.22814e-15 0)
(3 -2.38815e-15 0)
(3 -2.61585e-15 0)
(3 -2.73602e-15 0)
(3 -2.9142e-15 0)
(3 -2.8359e-15 0)
(3 -2.87897e-15 0)
(3 -2.15739e-15 0)
(3 -8.35159e-16 0)
(3 -2.53736e-15 0)
(3 -3.78626e-15 0)
(3 -3.38185e-15 0)
(3 -2.47656e-15 0)
(3 -3.78258e-17 0)
(3 3.75504e-17 0)
(3 7.9216e-17 0)
(3 1.45328e-16 0)
(3 -3.21396e-17 0)
(3 1.2882e-16 0)
(3 2.86438e-16 0)
(3 9.12395e-17 0)
(3 2.16054e-16 0)
(3 2.97478e-16 0)
(3 1.1783e-16 0)
(3 1.71673e-16 0)
(3 1.62639e-16 0)
(3 -3.01307e-16 0)
(3 -9.19896e-16 0)
(3 -1.16539e-15 0)
(3 -1.55883e-15 0)
(3 -1.78689e-15 0)
(3 -1.66934e-15 0)
(3 -9.78733e-16 0)
(3 -5.92007e-16 0)
(3 7.35937e-16 0)
(3 1.12619e-15 0)
(3 1.37204e-15 0)
(3 1.01618e-15 0)
(3 1.14818e-15 0)
(3 1.12199e-15 0)
(3 5.57459e-16 0)
(3 -1.19682e-16 0)
(3 -1.47587e-16 0)
(3 -2.02709e-16 0)
(3 -6.55872e-16 0)
(3 -1.26816e-16 0)
(3 1.33962e-16 0)
(3 6.58467e-16 0)
(3 7.79733e-16 0)
(3 8.2225e-16 0)
(3 6.07231e-16 0)
(3 6.50083e-16 0)
(3 4.95926e-16 0)
(3 2.68765e-16 0)
(3 -1.2799e-15 0)
(3 -9.66811e-16 0)
(3 -3.69571e-16 0)
(3 6.44333e-17 0)
(3 -5.13225e-16 0)
(3 -1.73929e-16 0)
(3 1.54128e-16 0)
(3 -1.93537e-16 0)
(3 -9.36432e-17 0)
(3 2.74334e-16 0)
(3 -3.23472e-16 0)
(3 1.16689e-16 0)
(3 5.46216e-16 0)
(3 5.77589e-16 0)
(3 2.32578e-16 0)
(3 8.33599e-18 0)
(3 2.94365e-17 0)
(3 8.16661e-16 0)
(3 1.5676e-15 0)
(3 1.53679e-15 0)
(3 9.14871e-16 0)
(3 5.90957e-16 0)
(3 2.47287e-16 0)
(3 5.2704e-16 0)
(3 1.16172e-15 0)
(3 1.80424e-15 0)
(3 -2.26225e-16 0)
(3 -1.51696e-15 0)
(3 -2.30079e-15 0)
(3 -2.63229e-15 0)
(3 -2.48662e-15 0)
(3 -2.5322e-15 0)
(3 -2.87463e-15 0)
(3 -3.03972e-15 0)
(3 -2.96333e-15 0)
(3 -1.93772e-15 0)
(3 -1.33169e-15 0)
(3 -1.99495e-15 0)
(3 -2.47695e-15 0)
(3 -2.6562e-15 0)
(3 -2.56493e-15 0)
(3 -3.24013e-15 0)
(3 -4.41332e-15 0)
(3 -4.4226e-15 0)
(3 -3.56196e-15 0)
(3 -3.18568e-15 0)
(3 -3.05292e-15 0)
(3 -2.23543e-15 0)
(3 -1.07792e-15 0)
(3 -4.32685e-16 0)
(3 -3.78959e-16 0)
(3 -5.46544e-16 0)
(3 -1.10559e-15 0)
(3 -1.20639e-15 0)
(3 -1.06444e-15 0)
(3 1.73754e-16 0)
(3 2.88043e-16 0)
(3 1.31329e-15 0)
(3 1.31786e-15 0)
(3 1.79041e-15 0)
(3 1.24867e-15 0)
(3 2.43335e-16 0)
(3 -4.34788e-16 0)
(3 -4.04427e-16 0)
(3 -1.94049e-16 0)
(3 6.50182e-17 0)
(3 -3.41207e-16 0)
(3 -6.64288e-16 0)
(3 -1.00918e-15 0)
(3 -1.03073e-15 0)
(3 -9.95466e-16 0)
(3 -1.09062e-15 0)
(3 -2.67506e-16 0)
(3 5.55394e-16 0)
(3 5.84635e-16 0)
(3 7.49245e-16 0)
(3 7.09271e-16 0)
(3 7.82489e-16 0)
(3 1.47602e-15 0)
(3 2.24579e-15 0)
(3 1.50895e-15 0)
(3 1.03147e-15 0)
(3 1.86038e-15 0)
(3 2.77443e-15 0)
(3 1.72824e-15 0)
(3 1.68618e-16 0)
(3 -1.05477e-15 0)
(3 -1.16058e-15 0)
(3 4.12838e-16 0)
(3 1.91194e-15 0)
(3 1.29244e-15 0)
(3 1.31473e-15 0)
(3 9.95523e-16 0)
(3 8.12581e-16 0)
(3 6.58826e-16 0)
(3 -4.85376e-16 0)
(3 -1.19336e-15 0)
(3 1.85134e-16 0)
(3 9.20453e-16 0)
(3 6.59528e-16 0)
(3 -4.77299e-16 0)
(3 -3.36995e-16 0)
(3 -4.97707e-16 0)
(3 -1.27861e-15 0)
(3 -1.64294e-15 0)
(3 -1.76802e-15 0)
(3 -1.53039e-15 0)
(3 -1.08358e-15 0)
(3 1.11753e-16 0)
(3 1.07585e-15 0)
(3 7.29462e-16 0)
(3 7.86494e-16 0)
(3 6.44984e-16 0)
(3 5.02113e-16 0)
(3 4.02801e-16 0)
(3 8.63306e-16 0)
(3 1.91143e-15 0)
(3 2.53511e-15 0)
(3 2.31605e-15 0)
(3 1.29365e-15 0)
(3 -3.80733e-16 0)
(3 -7.79149e-16 0)
(3 -1.24782e-15 0)
(3 -2.2255e-15 0)
(3 -3.11137e-15 0)
(3 -3.04802e-15 0)
(3 -2.97338e-15 0)
(3 -2.93362e-15 0)
(3 -2.96735e-15 0)
(3 -4.41703e-15 0)
(3 -4.00797e-15 0)
(3 -2.44383e-15 0)
(3 -2.09888e-15 0)
(3 -3.89369e-15 0)
(3 -4.49958e-15 0)
(3 -4.04901e-15 0)
(3 -3.26077e-15 0)
(3 -2.97388e-15 0)
(3 -3.84724e-15 0)
(3 -3.99938e-15 0)
(3 -4.07591e-15 0)
(3 -4.08969e-15 0)
(3 -3.85969e-15 0)
(3 -2.63694e-15 0)
(3 -3.61185e-16 0)
(3 2.26274e-16 0)
(3 -1.97862e-16 0)
(3 -6.54513e-16 0)
(3 -7.52323e-16 0)
(3 -8.84509e-16 0)
(3 -3.26607e-16 0)
(3 -4.19047e-18 0)
(3 -7.12569e-17 0)
(3 -3.02218e-16 0)
(3 -8.03764e-16 0)
(3 -7.78811e-16 0)
(3 -8.04856e-16 0)
(3 -1.02265e-15 0)
(3 -1.03588e-15 0)
(3 -7.50417e-16 0)
(3 -4.7069e-16 0)
(3 1.6978e-17 0)
(3 -2.67961e-16 0)
(3 -6.09407e-16 0)
(3 -3.80246e-16 0)
(3 -2.42236e-16 0)
(3 -4.43836e-16 0)
(3 3.26806e-16 0)
(3 8.7228e-16 0)
(3 1.64179e-15 0)
(3 1.33777e-15 0)
(3 1.08262e-15 0)
(3 1.14823e-15 0)
(3 2.35406e-15 0)
(3 2.0608e-15 0)
(3 2.253e-15 0)
(3 2.66955e-16 0)
(3 1.84349e-16 0)
(3 5.18855e-16 0)
(3 4.35425e-16 0)
(3 2.86076e-16 0)
(3 -1.09956e-15 0)
(3 -2.06182e-15 0)
(3 -5.51735e-16 0)
(3 2.07443e-15 0)
(3 2.96408e-15 0)
(3 2.83647e-15 0)
(3 1.47201e-15 0)
(3 6.74391e-16 0)
(3 -3.28044e-16 0)
(3 -4.70763e-16 0)
(3 -4.14956e-16 0)
(3 6.04865e-16 0)
(3 -9.39649e-18 0)
(3 2.49645e-17 0)
(3 -5.46845e-16 0)
(3 -9.26715e-16 0)
(3 -1.60636e-15 0)
(3 -2.01737e-15 0)
(3 -1.90859e-15 0)
(3 -1.4728e-15 0)
(3 -1.54213e-15 0)
(3 -9.29726e-16 0)