/*--------------------------------*- C++ -*----------------------------------*\
  =========                 |
  \\      /  F ield         | OpenFOAM: The Open Source CFD Toolbox
   \\    /   O peration     | Website:  https://openfoam.org
    \\  /    A nd           | Version:  7
     \\/     M anipulation  |
\*---------------------------------------------------------------------------*/
FoamFile
{
    version     2.0;
    format      ascii;
    class       volVectorField;
    location    "1.4";
    object      U;
}
// * * * * * * * * * * * * * * * * * * * * * * * * * * * * * * * * * * * * * //

dimensions      [0 1 -1 0 0 0 0];

internalField   nonuniform List<vector> 
73728
(
(3 1.22881e-17 0)
(3 8.80155e-17 0)
(3 -4.75039e-17 0)
(3 -5.77002e-17 0)
(3 1.11198e-16 0)
(3 -6.01405e-17 0)
(3 -2.50379e-16 0)
(3 -1.98208e-16 0)
(3 2.26311e-16 0)
(3 -1.62128e-16 0)
(3 -4.8317e-16 0)
(3 -5.60154e-16 0)
(3 -1.10447e-15 0)
(3 -1.41699e-15 0)
(3 -1.12887e-15 0)
(3 -2.95565e-16 0)
(3 4.02155e-16 0)
(3 5.88812e-16 0)
(3 6.7048e-16 0)
(3 5.85924e-16 0)
(3 -3.51495e-16 0)
(3 -6.64229e-16 0)
(3 4.30198e-17 0)
(3 5.46294e-16 0)
(3 2.62559e-16 0)
(3 2.08914e-16 0)
(3 1.18359e-15 0)
(3 1.15043e-15 0)
(3 6.41676e-16 0)
(3 1.06985e-15 0)
(3 1.30929e-15 0)
(3 1.05018e-15 0)
(3 1.00121e-15 0)
(3 4.47861e-16 0)
(3 -3.57435e-17 0)
(3 -3.77104e-16 0)
(3 -1.93955e-16 0)
(3 -2.80155e-16 0)
(3 -7.3006e-16 0)
(3 -8.90246e-16 0)
(3 -5.06402e-16 0)
(3 -5.95649e-16 0)
(3 -1.09274e-15 0)
(3 -1.44264e-15 0)
(3 -1.33925e-15 0)
(3 -1.22487e-15 0)
(3 -9.63419e-17 0)
(3 9.22156e-16 0)
(3 2.05861e-15 0)
(3 7.26032e-16 0)
(3 9.00752e-16 0)
(3 1.3383e-15 0)
(3 1.81648e-15 0)
(3 1.03456e-15 0)
(3 -1.67107e-16 0)
(3 -5.18572e-16 0)
(3 -7.45508e-16 0)
(3 -9.87709e-16 0)
(3 -6.44082e-16 0)
(3 9.29556e-16 0)
(3 1.01415e-15 0)
(3 5.25232e-16 0)
(3 -3.3948e-16 0)
(3 -6.00272e-16 0)
(3 -4.5257e-16 0)
(3 3.16716e-16 0)
(3 -1.48827e-15 0)
(3 -2.03233e-15 0)
(3 -1.80964e-15 0)
(3 -2.65666e-15 0)
(3 -2.64996e-15 0)
(3 -2.76669e-15 0)
(3 -1.75063e-15 0)
(3 9.1088e-17 0)
(3 7.04259e-16 0)
(3 8.83505e-16 0)
(3 5.79198e-16 0)
(3 2.3939e-16 0)
(3 2.04943e-16 0)
(3 2.87043e-16 0)
(3 9.36457e-16 0)
(3 1.01552e-15 0)
(3 1.02465e-15 0)
(3 1.01355e-15 0)
(3 9.63521e-16 0)
(3 7.4607e-16 0)
(3 7.99528e-16 0)
(3 7.72168e-16 0)
(3 5.13313e-16 0)
(3 -3.04281e-16 0)
(3 -1.13173e-16 0)
(3 4.10437e-16 0)
(3 8.56118e-16 0)
(3 1.32785e-15 0)
(3 1.44871e-15 0)
(3 1.35078e-15 0)
(3 6.71671e-18 0)
(3 1.65936e-16 0)
(3 -5.64246e-16 0)
(3 -1.21846e-15 0)
(3 -8.37488e-16 0)
(3 -1.00739e-15 0)
(3 -6.69393e-16 0)
(3 -6.90143e-16 0)
(3 -2.7331e-16 0)
(3 -9.3917e-16 0)
(3 -2.22408e-15 0)
(3 -2.18329e-15 0)
(3 -1.85815e-15 0)
(3 -1.95065e-15 0)
(3 -7.66457e-16 0)
(3 1.26956e-15 0)
(3 1.84922e-15 0)
(3 1.90919e-15 0)
(3 1.99215e-15 0)
(3 2.39746e-15 0)
(3 1.80696e-15 0)
(3 6.21283e-16 0)
(3 7.59322e-16 0)
(3 1.83496e-15 0)
(3 2.1246e-15 0)
(3 2.07296e-15 0)
(3 2.10648e-15 0)
(3 1.38975e-15 0)
(3 2.98645e-16 0)
(3 1.88456e-15 0)
(3 2.24895e-15 0)
(3 2.22484e-15 0)
(3 1.49076e-15 0)
(3 7.13341e-16 0)
(3 2.8771e-16 0)
(3 -3.05281e-16 0)
(3 -5.24573e-16 0)
(3 9.05026e-16 0)
(3 1.37522e-15 0)
(3 8.09234e-16 0)
(3 2.1926e-16 0)
(3 -7.61251e-16 0)
(3 -2.44163e-15 0)
(3 -2.17968e-15 0)
(3 -1.59161e-15 0)
(3 -5.53288e-16 0)
(3 6.19979e-16 0)
(3 2.39746e-15 0)
(3 2.65172e-15 0)
(3 2.06064e-15 0)
(3 1.60061e-15 0)
(3 1.68184e-15 0)
(3 2.00435e-15 0)
(3 1.3696e-15 0)
(3 8.78125e-16 0)
(3 -1.3014e-16 0)
(3 -7.44684e-16 0)
(3 -1.11604e-15 0)
(3 -1.24846e-15 0)
(3 1.18887e-16 0)
(3 4.09866e-16 0)
(3 3.6985e-16 0)
(3 2.33773e-16 0)
(3 2.8172e-17 0)
(3 7.34147e-16 0)
(3 1.37353e-15 0)
(3 -4.4929e-16 0)
(3 -1.86583e-15 0)
(3 -2.55649e-15 0)
(3 -3.04102e-15 0)
(3 -2.5468e-15 0)
(3 -1.9833e-15 0)
(3 -1.29862e-15 0)
(3 8.03755e-16 0)
(3 1.44156e-15 0)
(3 1.54937e-15 0)
(3 1.6124e-15 0)
(3 8.90388e-16 0)
(3 6.99029e-16 0)
(3 1.20037e-15 0)
(3 1.81043e-15 0)
(3 1.96023e-15 0)
(3 1.79153e-15 0)
(3 1.26633e-15 0)
(3 1.64525e-15 0)
(3 1.38557e-15 0)
(3 1.32994e-15 0)
(3 1.42049e-15 0)
(3 1.16514e-15 0)
(3 8.27199e-16 0)
(3 1.03993e-15 0)
(3 1.38422e-15 0)
(3 1.82558e-15 0)
(3 1.81165e-15 0)
(3 1.74566e-15 0)
(3 2.23426e-15 0)
(3 -1.20965e-17 0)
(3 -6.21073e-17 0)
(3 -7.18729e-16 0)
(3 -1.38862e-15 0)
(3 -1.88226e-15 0)
(3 -1.675e-15 0)
(3 -1.27232e-15 0)
(3 -1.30891e-15 0)
(3 -1.70439e-15 0)
(3 -2.3335e-15 0)
(3 -2.92379e-15 0)
(3 -2.70079e-15 0)
(3 -1.29036e-15 0)
(3 -8.41813e-16 0)
(3 4.96607e-16 0)
(3 6.18398e-16 0)
(3 7.34118e-16 0)
(3 6.36753e-16 0)
(3 1.33478e-15 0)
(3 1.37063e-15 0)
(3 1.12515e-15 0)
(3 5.35417e-16 0)
(3 4.09834e-16 0)
(3 2.10532e-15 0)
(3 3.87304e-15 0)
(3 4.44763e-15 0)
(3 2.71026e-15 0)
(3 9.00653e-16 0)
(3 1.01551e-15 0)
(3 2.26999e-15 0)
(3 2.81432e-15 0)
(3 2.69168e-15 0)
(3 1.12747e-15 0)
(3 4.43185e-16 0)
(3 -1.48902e-16 0)
(3 -9.55178e-16 0)
(3 -1.55318e-15 0)
(3 -1.59254e-15 0)
(3 -2.2865e-16 0)
(3 5.85591e-16 0)
(3 5.95005e-16 0)
(3 2.41288e-16 0)
(3 -2.89813e-16 0)
(3 -9.96903e-16 0)
(3 -1.02385e-15 0)
(3 -2.93204e-16 0)
(3 7.27893e-16 0)
(3 7.84878e-16 0)
(3 1.1408e-16 0)
(3 -3.6393e-16 0)
(3 -4.66138e-16 0)
(3 -5.08463e-16 0)
(3 3.298e-16 0)
(3 5.87997e-16 0)
(3 5.45201e-16 0)
(3 2.6121e-17 0)
(3 -9.68981e-16 0)
(3 -1.49319e-15 0)
(3 -1.28431e-15 0)
(3 -1.24053e-15 0)
(3 -1.22194e-15 0)
(3 -1.61263e-15 0)
(3 -1.40725e-15 0)
(3 -5.61278e-16 0)
(3 4.74724e-17 0)
(3 4.48542e-17 0)
(3 -5.63153e-16 0)
(3 -1.23776e-15 0)
(3 -2.34588e-15 0)
(3 -2.02929e-15 0)
(3 -1.60979e-15 0)
(3 -8.88004e-16 0)
(3 3.82736e-16 0)
(3 1.1183e-15 0)
(3 1.19242e-15 0)
(3 1.05477e-15 0)
(3 9.02493e-16 0)
(3 1.5024e-15 0)
(3 3.07489e-15 0)
(3 3.45261e-15 0)
(3 2.65686e-15 0)
(3 2.25318e-15 0)
(3 1.88431e-15 0)
(3 1.99366e-15 0)
(3 2.36223e-15 0)
(3 1.66884e-15 0)
(3 1.07928e-15 0)
(3 1.56449e-15 0)
(3 1.4035e-15 0)
(3 2.32852e-15 0)
(3 3.25065e-15 0)
(3 3.36716e-15 0)
(3 2.84708e-15 0)
(3 1.70752e-15 0)
(3 2.58336e-15 0)
(3 2.26035e-15 0)
(3 2.04524e-16 0)
(3 3.945e-17 0)
(3 -6.6329e-16 0)
(3 -9.71004e-16 0)
(3 -1.53819e-15 0)
(3 -2.27938e-15 0)
(3 -2.81242e-15 0)
(3 -2.86187e-15 0)
(3 -2.97711e-15 0)
(3 -1.43215e-15 0)
(3 -2.57256e-16 0)
(3 6.64284e-16 0)
(3 1.02034e-15 0)
(3 1.51744e-15 0)
(3 1.49408e-15 0)
(3 1.48758e-15 0)
(3 1.09557e-15 0)
(3 2.53629e-16 0)
(3 2.1379e-16 0)
(3 1.26098e-16 0)
(3 4.83686e-16 0)
(3 1.30274e-15 0)
(3 2.58599e-15 0)
(3 3.95071e-15 0)
(3 5.27599e-15 0)
(3 5.30461e-15 0)
(3 2.35934e-15 0)
(3 8.80886e-16 0)
(3 1.13764e-15 0)
(3 1.48768e-15 0)
(3 1.86007e-15 0)
(3 8.77214e-16 0)
(3 4.57665e-17 0)
(3 -3.87463e-18 0)
(3 -2.91545e-16 0)
(3 -6.56643e-16 0)
(3 -9.83046e-16 0)
(3 -8.72974e-16 0)
(3 -7.0876e-16 0)
(3 -3.05414e-16 0)
(3 5.31988e-16 0)
(3 1.25085e-15 0)
(3 1.13296e-15 0)
(3 5.62789e-16 0)
(3 3.54333e-16 0)
(3 -9.8932e-17 0)
(3 -7.7111e-16 0)
(3 -1.07664e-15 0)
(3 -1.55331e-15 0)
(3 -2.65544e-15 0)
(3 -2.87271e-15 0)
(3 -2.60759e-15 0)
(3 -2.48857e-15 0)
(3 -2.42913e-15 0)
(3 -2.59064e-15 0)
(3 -2.19538e-15 0)
(3 -2.28998e-15 0)
(3 -1.99727e-15 0)
(3 -5.86397e-16 0)
(3 -8.68702e-16 0)
(3 -1.67225e-15 0)
(3 -1.77571e-15 0)
(3 -1.21131e-15 0)
(3 -5.35861e-16 0)
(3 -4.27767e-16 0)
(3 -1.15172e-15 0)
(3 -1.32214e-15 0)
(3 -1.88707e-15 0)
(3 -2.97115e-15 0)
(3 -3.03367e-15 0)
(3 -2.46308e-15 0)
(3 -1.56864e-15 0)
(3 -1.22841e-15 0)
(3 -1.21609e-15 0)
(3 -3.82806e-16 0)
(3 8.26762e-16 0)
(3 1.1863e-15 0)
(3 1.87102e-15 0)
(3 2.92446e-15 0)
(3 2.61262e-15 0)
(3 8.35803e-16 0)
(3 5.13857e-16 0)
(3 2.80884e-16 0)
(3 7.6744e-16 0)
(3 3.97819e-16 0)
(3 -2.86876e-16 0)
(3 -2.86355e-16 0)
(3 -8.6195e-16 0)
(3 -1.4095e-15 0)
(3 1.12621e-15 0)
(3 2.57864e-15 0)
(3 3.46107e-15 0)
(3 3.78232e-15 0)
(3 3.1524e-15 0)
(3 2.22107e-15 0)
(3 8.89942e-16 0)
(3 3.93018e-16 0)
(3 3.41949e-16 0)
(3 2.30527e-16 0)
(3 1.81768e-17 0)
(3 -2.56391e-17 0)
(3 -1.04216e-16 0)
(3 -5.49199e-16 0)
(3 -1.06334e-15 0)
(3 -6.57444e-16 0)
(3 3.99498e-18 0)
(3 6.09446e-16 0)
(3 8.40322e-16 0)
(3 1.68777e-15 0)
(3 2.65144e-15 0)
(3 2.60059e-15 0)
(3 2.13334e-15 0)
(3 1.11124e-15 0)
(3 9.62424e-16 0)
(3 6.71518e-16 0)
(3 1.32625e-15 0)
(3 1.63975e-15 0)
(3 1.67935e-15 0)
(3 1.78418e-15 0)
(3 1.83558e-15 0)
(3 3.25423e-15 0)
(3 2.50781e-15 0)
(3 8.3208e-16 0)
(3 1.1886e-16 0)
(3 -3.51646e-16 0)
(3 -3.56763e-16 0)
(3 2.4045e-16 0)
(3 7.72248e-16 0)
(3 1.60152e-15 0)
(3 1.51527e-15 0)
(3 7.66381e-16 0)
(3 -1.30081e-15 0)
(3 -2.14887e-15 0)
(3 -7.64069e-16 0)
(3 5.77865e-16 0)
(3 9.26649e-16 0)
(3 9.25903e-16 0)
(3 7.15167e-16 0)
(3 1.78799e-15 0)
(3 3.23242e-15 0)
(3 2.20281e-15 0)
(3 -3.09715e-16 0)
(3 -1.12107e-15 0)
(3 -1.49948e-15 0)
(3 -2.0912e-15 0)
(3 -2.78215e-15 0)
(3 -2.63421e-15 0)
(3 -3.32045e-15 0)
(3 -4.07997e-15 0)
(3 -3.69061e-15 0)
(3 -3.48208e-15 0)
(3 -2.70968e-15 0)
(3 -1.58621e-15 0)
(3 -8.82541e-16 0)
(3 -8.41773e-16 0)
(3 -3.3832e-16 0)
(3 -9.98624e-17 0)
(3 4.30061e-16 0)
(3 8.33209e-16 0)
(3 5.02097e-16 0)
(3 5.23615e-16 0)
(3 -2.76964e-16 0)
(3 -7.72053e-16 0)
(3 -2.40863e-15 0)
(3 -2.94694e-15 0)
(3 -2.83057e-15 0)
(3 -2.57399e-15 0)
(3 -2.55493e-15 0)
(3 -3.13853e-15 0)
(3 -3.38606e-15 0)
(3 -2.8068e-15 0)
(3 -1.11581e-15 0)
(3 -3.39555e-16 0)
(3 -5.11956e-16 0)
(3 -4.8806e-16 0)
(3 -2.60498e-16 0)
(3 -1.49255e-15 0)
(3 -2.44839e-15 0)
(3 -2.44292e-15 0)
(3 -2.04845e-15 0)
(3 -1.99844e-15 0)
(3 -2.58194e-15 0)
(3 -3.41816e-15 0)
(3 -3.90411e-15 0)
(3 -3.03786e-15 0)
(3 -2.40347e-15 0)
(3 4.81704e-16 0)
(3 2.10789e-15 0)
(3 2.84614e-15 0)
(3 2.89026e-15 0)
(3 1.39906e-15 0)
(3 -2.36791e-15 0)
(3 -1.02914e-16 0)
(3 -1.5186e-16 0)
(3 2.41587e-16 0)
(3 3.719e-16 0)
(3 7.94545e-16 0)
(3 1.92404e-15 0)
(3 2.37744e-15 0)
(3 2.89488e-15 0)
(3 3.97952e-15 0)
(3 1.96423e-15 0)
(3 6.46523e-16 0)
(3 2.94569e-16 0)
(3 9.01482e-16 0)
(3 1.18369e-15 0)
(3 8.57938e-16 0)
(3 7.57471e-16 0)
(3 8.37376e-16 0)
(3 1.08672e-15 0)
(3 1.99094e-15 0)
(3 1.69615e-15 0)
(3 5.42301e-16 0)
(3 2.32659e-16 0)
(3 -3.56624e-16 0)
(3 -3.01126e-16 0)
(3 2.10107e-16 0)
(3 2.2129e-16 0)
(3 1.60053e-18 0)
(3 -2.92231e-16 0)
(3 -1.14403e-15 0)
(3 -7.99921e-16 0)
(3 -1.50813e-16 0)
(3 3.33112e-16 0)
(3 6.38626e-16 0)
(3 6.90847e-16 0)
(3 4.93713e-16 0)
(3 2.09087e-16 0)
(3 -3.2059e-16 0)
(3 5.86569e-17 0)
(3 7.84373e-16 0)
(3 8.08238e-16 0)
(3 5.35857e-16 0)
(3 -1.59353e-15 0)
(3 7.06618e-16 0)
(3 2.76653e-15 0)
(3 1.59823e-15 0)
(3 1.04806e-15 0)
(3 5.99421e-16 0)
(3 -5.06339e-16 0)
(3 -9.54518e-16 0)
(3 -1.07247e-15 0)
(3 -1.02502e-15 0)
(3 -3.16448e-15 0)
(3 -3.77761e-15 0)
(3 -3.24858e-15 0)
(3 -3.15921e-15 0)
(3 -3.32928e-15 0)
(3 -2.77705e-15 0)
(3 -1.48223e-15 0)
(3 -8.10779e-16 0)
(3 -8.81952e-16 0)
(3 1.44021e-15 0)
(3 2.348e-15 0)
(3 2.33668e-15 0)
(3 2.36442e-15 0)
(3 1.18444e-15 0)
(3 1.48717e-16 0)
(3 -2.27518e-16 0)
(3 -1.81747e-16 0)
(3 -1.33877e-16 0)
(3 -2.21982e-15 0)
(3 -3.1188e-15 0)
(3 -3.63453e-15 0)
(3 -3.07763e-15 0)
(3 -2.67469e-15 0)
(3 -2.05691e-15 0)
(3 -1.12288e-15 0)
(3 -4.47639e-16 0)
(3 -6.51553e-16 0)
(3 -4.45193e-16 0)
(3 4.44635e-17 0)
(3 -1.39556e-15 0)
(3 -2.94491e-15 0)
(3 -3.22287e-15 0)
(3 -3.29708e-15 0)
(3 -3.43224e-15 0)
(3 -4.56941e-15 0)
(3 -5.02844e-15 0)
(3 -4.53831e-15 0)
(3 -2.75152e-15 0)
(3 -2.12592e-15 0)
(3 -3.54711e-16 0)
(3 2.40889e-15 0)
(3 2.05569e-15 0)
(3 7.49604e-16 0)
(3 -1.05481e-15 0)
(3 -2.75724e-15 0)
(3 -1.29239e-16 0)
(3 1.00785e-17 0)
(3 3.01194e-16 0)
(3 2.69241e-16 0)
(3 4.8516e-16 0)
(3 3.81968e-16 0)
(3 6.62297e-16 0)
(3 1.94822e-15 0)
(3 2.23461e-15 0)
(3 2.55427e-15 0)
(3 1.3194e-15 0)
(3 -2.12333e-16 0)
(3 -5.96564e-16 0)
(3 -9.27506e-17 0)
(3 6.34665e-17 0)
(3 1.13753e-16 0)
(3 6.09936e-16 0)
(3 1.25324e-15 0)
(3 1.19863e-15 0)
(3 8.91341e-16 0)
(3 5.60587e-16 0)
(3 3.22378e-16 0)
(3 2.02429e-16 0)
(3 -2.39352e-16 0)
(3 -1.15439e-15 0)
(3 -1.11354e-15 0)
(3 -9.37598e-17 0)
(3 8.67289e-16 0)
(3 -6.96006e-17 0)
(3 -1.03342e-15 0)
(3 -1.29103e-15 0)
(3 -1.71043e-15 0)
(3 -1.11112e-15 0)
(3 4.9305e-17 0)
(3 3.19388e-16 0)
(3 3.52361e-16 0)
(3 -3.37963e-16 0)
(3 -1.45263e-16 0)
(3 -8.72345e-18 0)
(3 -1.23166e-15 0)
(3 -1.75542e-15 0)
(3 -3.49544e-15 0)
(3 -2.76509e-15 0)
(3 -2.47425e-15 0)
(3 -2.1751e-15 0)
(3 -8.72395e-16 0)
(3 -2.94509e-16 0)
(3 -2.94977e-16 0)
(3 -2.79498e-16 0)
(3 1.6995e-17 0)
(3 -2.38702e-17 0)
(3 -6.44907e-16 0)
(3 -1.83343e-15 0)
(3 -4.25431e-15 0)
(3 -4.77639e-15 0)
(3 -4.90074e-15 0)
(3 -4.73333e-15 0)
(3 -3.77975e-15 0)
(3 -3.09837e-15 0)
(3 -2.67413e-15 0)
(3 -1.66537e-15 0)
(3 4.20098e-16 0)
(3 1.44493e-15 0)
(3 2.42584e-15 0)
(3 2.13538e-15 0)
(3 2.04772e-15 0)
(3 2.80195e-16 0)
(3 6.38709e-17 0)
(3 3.99935e-16 0)
(3 -9.88161e-16 0)
(3 -1.72666e-15 0)
(3 -2.11682e-15 0)
(3 -1.31342e-15 0)
(3 -4.17884e-16 0)
(3 -2.5623e-16 0)
(3 3.21213e-16 0)
(3 1.17979e-15 0)
(3 1.26926e-15 0)
(3 1.3761e-18 0)
(3 -7.65314e-16 0)
(3 -6.16425e-16 0)
(3 -1.34836e-15 0)
(3 -1.86266e-15 0)
(3 -3.65064e-15 0)
(3 -4.29834e-15 0)
(3 -4.63618e-15 0)
(3 -4.32372e-15 0)
(3 -3.5866e-15 0)
(3 -3.08334e-15 0)
(3 -2.37196e-15 0)
(3 -4.82943e-16 0)
(3 1.32362e-15 0)
(3 1.0839e-15 0)
(3 1.5131e-15 0)
(3 -1.47728e-15 0)
(3 -3.57693e-15 0)
(3 -1.69554e-16 0)
(3 7.06365e-17 0)
(3 -7.658e-17 0)
(3 -7.24428e-17 0)
(3 1.12772e-16 0)
(3 8.60479e-17 0)
(3 7.00888e-17 0)
(3 2.75799e-16 0)
(3 2.3838e-16 0)
(3 -5.69236e-18 0)
(3 -4.17905e-16 0)
(3 -7.51642e-16 0)
(3 -1.09517e-15 0)
(3 -1.08652e-15 0)
(3 -7.33484e-16 0)
(3 -1.31027e-15 0)
(3 -1.4909e-15 0)
(3 -1.46074e-15 0)
(3 -1.67522e-15 0)
(3 -1.29465e-15 0)
(3 -3.89971e-16 0)
(3 -3.1755e-16 0)
(3 -3.86723e-16 0)
(3 -1.09651e-15 0)
(3 -2.18882e-15 0)
(3 -2.36938e-15 0)
(3 -1.28548e-15 0)
(3 -4.43075e-16 0)
(3 -7.70679e-16 0)
(3 -9.50299e-16 0)
(3 -5.40096e-16 0)
(3 -7.96723e-16 0)
(3 -1.0027e-15 0)
(3 -1.56242e-16 0)
(3 8.18653e-16 0)
(3 7.70886e-16 0)
(3 7.61349e-16 0)
(3 -8.47343e-16 0)
(3 -1.50422e-15 0)
(3 -2.04379e-15 0)
(3 -3.09752e-15 0)
(3 -2.54276e-15 0)
(3 -2.65227e-15 0)
(3 -2.99059e-15 0)
(3 -3.6618e-15 0)
(3 -3.54042e-15 0)
(3 -2.08852e-15 0)
(3 -2.27663e-16 0)
(3 2.23611e-16 0)
(3 6.82228e-17 0)
(3 7.50922e-16 0)
(3 7.41996e-16 0)
(3 7.84111e-16 0)
(3 -9.43857e-16 0)
(3 -4.61901e-15 0)
(3 -6.489e-15 0)
(3 -5.96104e-15 0)
(3 -3.75353e-15 0)
(3 -2.47747e-15 0)
(3 -2.00607e-15 0)
(3 -2.22962e-15 0)
(3 -1.37319e-15 0)
(3 -6.44755e-16 0)
(3 5.70948e-16 0)
(3 2.33755e-15 0)
(3 5.98792e-16 0)
(3 -9.57008e-16 0)
(3 -1.15224e-15 0)
(3 -1.27545e-15 0)
(3 -6.65378e-16 0)
(3 1.98892e-16 0)
(3 4.99649e-16 0)
(3 1.08119e-15 0)
(3 1.74938e-15 0)
(3 2.3561e-15 0)
(3 2.73198e-15 0)
(3 1.61411e-15 0)
(3 -1.4579e-17 0)
(3 -4.70772e-16 0)
(3 -3.78628e-16 0)
(3 -3.61508e-16 0)
(3 -5.16129e-16 0)
(3 -5.34953e-16 0)
(3 -2.36527e-15 0)
(3 -4.35516e-15 0)
(3 -3.07209e-15 0)
(3 -2.91545e-15 0)
(3 -3.59546e-15 0)
(3 -4.30896e-15 0)
(3 -3.47901e-15 0)
(3 -1.89585e-15 0)
(3 -1.01381e-15 0)
(3 -5.31644e-16 0)
(3 -1.15165e-15 0)
(3 -1.52438e-15 0)
(3 -2.06637e-15 0)
(3 -1.53209e-16 0)
(3 -4.85284e-16 0)
(3 -1.50017e-15 0)
(3 -1.23886e-15 0)
(3 -1.42427e-16 0)
(3 6.73653e-16 0)
(3 9.4001e-16 0)
(3 7.27738e-16 0)
(3 -7.26346e-16 0)
(3 -1.39756e-15 0)
(3 -1.35403e-15 0)
(3 -1.57709e-15 0)
(3 -1.43743e-15 0)
(3 -1.6383e-15 0)
(3 -1.7022e-15 0)
(3 -2.07831e-15 0)
(3 -2.56207e-15 0)
(3 -3.23767e-15 0)
(3 -3.23933e-15 0)
(3 -2.16319e-15 0)
(3 -1.30384e-15 0)
(3 -2.30259e-16 0)
(3 -1.44373e-15 0)
(3 -1.62798e-15 0)
(3 -1.48531e-15 0)
(3 -1.3833e-15 0)
(3 -2.13603e-15 0)
(3 -2.50378e-15 0)
(3 -2.09548e-15 0)
(3 -9.07778e-16 0)
(3 1.71547e-16 0)
(3 1.78155e-16 0)
(3 -4.19083e-16 0)
(3 -8.61668e-17 0)
(3 8.48422e-16 0)
(3 1.39114e-15 0)
(3 1.42157e-15 0)
(3 1.45793e-16 0)
(3 -1.8897e-15 0)
(3 -2.57824e-15 0)
(3 -2.31196e-15 0)
(3 -1.87265e-15 0)
(3 -2.89664e-15 0)
(3 -2.98097e-15 0)
(3 -2.73282e-15 0)
(3 -2.54175e-15 0)
(3 -2.08197e-15 0)
(3 -1.07614e-15 0)
(3 3.21856e-16 0)
(3 1.39454e-15 0)
(3 -1.71004e-16 0)
(3 -1.90573e-16 0)
(3 -3.28937e-17 0)
(3 -3.46497e-16 0)
(3 -3.08343e-15 0)
(3 -4.58903e-15 0)
(3 -4.07368e-15 0)
(3 -2.32362e-15 0)
(3 -1.58871e-15 0)
(3 -1.17567e-15 0)
(3 7.95797e-16 0)
(3 1.29341e-15 0)
(3 2.06038e-15 0)
(3 2.19184e-15 0)
(3 1.90433e-15 0)
(3 4.08962e-16 0)
(3 -1.11236e-15 0)
(3 -1.44147e-15 0)
(3 -2.13582e-15 0)
(3 -1.47556e-15 0)
(3 1.15238e-15 0)
(3 2.1069e-15 0)
(3 1.63552e-15 0)
(3 1.75931e-15 0)
(3 2.22151e-15 0)
(3 2.54877e-15 0)
(3 3.58595e-16 0)
(3 -1.55089e-15 0)
(3 -1.31285e-15 0)
(3 -4.94522e-16 0)
(3 -5.51118e-16 0)
(3 -5.3308e-16 0)
(3 1.49049e-16 0)
(3 -4.99047e-16 0)
(3 -1.71981e-15 0)
(3 -2.75375e-15 0)
(3 -2.06713e-15 0)
(3 -2.20542e-15 0)
(3 -3.27838e-15 0)
(3 -2.78482e-15 0)
(3 -3.2656e-15 0)
(3 -2.76078e-15 0)
(3 -1.98868e-15 0)
(3 -2.79505e-15 0)
(3 -1.40737e-15 0)
(3 -5.48509e-16 0)
(3 1.03965e-16 0)
(3 -2.07183e-16 0)
(3 1.07343e-16 0)
(3 1.3425e-16 0)
(3 -1.56661e-17 0)
(3 -1.40626e-16 0)
(3 4.5552e-16 0)
(3 4.7613e-16 0)
(3 -4.74184e-16 0)
(3 -1.85291e-15 0)
(3 -1.65854e-15 0)
(3 -1.24388e-15 0)
(3 -1.17921e-15 0)
(3 -1.23651e-15 0)
(3 -1.29205e-15 0)
(3 -1.04354e-15 0)
(3 -8.62349e-16 0)
(3 -5.64079e-16 0)
(3 -5.80324e-16 0)
(3 -6.84488e-16 0)
(3 -2.93844e-16 0)
(3 -1.09257e-16 0)
(3 -1.98523e-16 0)
(3 -3.27842e-16 0)
(3 -2.11801e-16 0)
(3 -1.37065e-16 0)
(3 -5.66578e-16 0)
(3 -1.09878e-15 0)
(3 1.77396e-16 0)
(3 4.47833e-16 0)
(3 1.15343e-15 0)
(3 1.99613e-15 0)
(3 1.17083e-15 0)
(3 3.20763e-16 0)
(3 -5.45026e-16 0)
(3 -4.98193e-16 0)
(3 -3.74606e-16 0)
(3 4.52158e-17 0)
(3 -5.53032e-16 0)
(3 -1.48824e-15 0)
(3 -2.13461e-15 0)
(3 -1.42061e-15 0)
(3 -1.43268e-15 0)
(3 -1.13717e-15 0)
(3 -7.74701e-16 0)
(3 1.16225e-16 0)
(3 6.38159e-16 0)
(3 3.37272e-17 0)
(3 1.48261e-16 0)
(3 1.18593e-15 0)
(3 1.84454e-15 0)
(3 8.7256e-16 0)
(3 4.03382e-16 0)
(3 -1.26754e-15 0)
(3 -2.47481e-16 0)
(3 2.74139e-15 0)
(3 1.51645e-15 0)
(3 1.57441e-16 0)
(3 -1.36267e-16 0)
(3 1.65439e-15 0)
(3 2.41777e-15 0)
(3 2.50303e-15 0)
(3 1.72076e-15 0)
(3 1.09083e-15 0)
(3 -7.78476e-16 0)
(3 -2.05263e-15 0)
(3 -1.95803e-15 0)
(3 -2.00658e-15 0)
(3 -2.12201e-15 0)
(3 -1.27203e-15 0)
(3 -3.66862e-17 0)
(3 1.66088e-15 0)
(3 1.32112e-15 0)
(3 4.01105e-16 0)
(3 -5.89132e-16 0)
(3 -7.6692e-16 0)
(3 -1.07595e-15 0)
(3 -1.23565e-15 0)
(3 -1.76668e-15 0)
(3 -1.95666e-15 0)
(3 -1.58304e-15 0)
(3 -3.5858e-16 0)
(3 2.38997e-16 0)
(3 3.32732e-16 0)
(3 1.9435e-15 0)
(3 1.69039e-15 0)
(3 7.06891e-16 0)
(3 1.74707e-16 0)
(3 -2.45168e-16 0)
(3 -1.58452e-15 0)
(3 -1.90871e-15 0)
(3 -2.61847e-15 0)
(3 -4.06955e-15 0)
(3 -4.61843e-15 0)
(3 -3.4089e-15 0)
(3 1.01815e-15 0)
(3 -1.61339e-16 0)
(3 7.57755e-17 0)
(3 6.63334e-16 0)
(3 7.77076e-16 0)
(3 1.80386e-16 0)
(3 -2.40096e-16 0)
(3 9.53689e-16 0)
(3 1.35837e-15 0)
(3 1.24744e-15 0)
(3 8.10138e-19 0)
(3 -1.04882e-15 0)
(3 -3.62886e-16 0)
(3 -4.00551e-16 0)
(3 -4.7526e-16 0)
(3 -4.80281e-16 0)
(3 -2.24447e-16 0)
(3 -2.88907e-16 0)
(3 5.14335e-16 0)
(3 1.28176e-15 0)
(3 1.74161e-15 0)
(3 1.28179e-15 0)
(3 4.91184e-16 0)
(3 4.98765e-16 0)
(3 6.97858e-16 0)
(3 1.59168e-16 0)
(3 5.09806e-16 0)
(3 1.33502e-15 0)
(3 4.32571e-16 0)
(3 4.11936e-16 0)
(3 -1.73815e-16 0)
(3 -5.54746e-16 0)
(3 1.15293e-16 0)
(3 2.61057e-16 0)
(3 6.27336e-16 0)
(3 6.50327e-16 0)
(3 6.27121e-16 0)
(3 3.93823e-16 0)
(3 -6.47738e-16 0)
(3 -1.33127e-15 0)
(3 -1.63571e-15 0)
(3 -1.43789e-15 0)
(3 -4.79949e-16 0)
(3 6.15646e-16 0)
(3 1.05114e-15 0)
(3 2.10057e-15 0)
(3 2.06272e-15 0)
(3 2.10534e-15 0)
(3 4.41542e-16 0)
(3 -9.06977e-16 0)
(3 -5.08052e-16 0)
(3 4.02293e-16 0)
(3 2.13828e-15 0)
(3 2.04824e-15 0)
(3 3.19782e-16 0)
(3 1.274e-15 0)
(3 4.05702e-15 0)
(3 5.69922e-15 0)
(3 5.47532e-15 0)
(3 5.63577e-15 0)
(3 4.73646e-15 0)
(3 3.41217e-15 0)
(3 3.57364e-15 0)
(3 2.35646e-15 0)
(3 -4.51753e-17 0)
(3 -1.60545e-15 0)
(3 -2.04979e-15 0)
(3 -2.24258e-15 0)
(3 -2.23344e-15 0)
(3 -2.12715e-15 0)
(3 -1.61523e-15 0)
(3 -1.39484e-15 0)
(3 6.67571e-16 0)
(3 8.90615e-16 0)
(3 -7.69492e-17 0)
(3 -1.11543e-15 0)
(3 -1.56115e-15 0)
(3 -3.01271e-16 0)
(3 2.85763e-16 0)
(3 9.14586e-17 0)
(3 -7.85494e-16 0)
(3 -6.23885e-16 0)
(3 5.14978e-16 0)
(3 2.40116e-15 0)
(3 4.25328e-15 0)
(3 5.71437e-15 0)
(3 5.54903e-15 0)
(3 3.253e-15 0)
(3 1.91784e-15 0)
(3 2.6014e-15 0)
(3 1.7485e-15 0)
(3 -1.03094e-16 0)
(3 -2.7165e-15 0)
(3 -3.91303e-15 0)
(3 -3.02748e-15 0)
(3 -1.58129e-15 0)
(3 7.77522e-16 0)
(3 1.10421e-16 0)
(3 3.9695e-16 0)
(3 3.08884e-16 0)
(3 1.65003e-16 0)
(3 2.72381e-16 0)
(3 -1.2134e-16 0)
(3 -5.19618e-16 0)
(3 6.7619e-16 0)
(3 1.15254e-15 0)
(3 1.36477e-15 0)
(3 1.02021e-15 0)
(3 1.21941e-15 0)
(3 1.05097e-15 0)
(3 3.57872e-16 0)
(3 -4.12188e-17 0)
(3 3.59095e-16 0)
(3 8.36275e-16 0)
(3 6.68524e-16 0)
(3 2.0334e-15 0)
(3 2.03093e-15 0)
(3 1.39695e-15 0)
(3 1.05299e-15 0)
(3 1.37472e-15 0)
(3 1.92676e-15 0)
(3 1.9894e-15 0)
(3 1.69163e-15 0)
(3 1.39597e-15 0)
(3 1.11831e-15 0)
(3 7.17814e-16 0)
(3 -3.98012e-17 0)
(3 -4.2599e-16 0)
(3 -1.1288e-15 0)
(3 1.14084e-16 0)
(3 1.19718e-15 0)
(3 1.35053e-15 0)
(3 1.78229e-15 0)
(3 2.16692e-15 0)
(3 4.00524e-16 0)
(3 -5.69486e-16 0)
(3 -6.98566e-16 0)
(3 -5.05838e-16 0)
(3 -4.42078e-16 0)
(3 6.59195e-16 0)
(3 2.79719e-16 0)
(3 -9.21866e-16 0)
(3 -1.99847e-16 0)
(3 -4.66594e-16 0)
(3 -5.07989e-16 0)
(3 -1.40471e-15 0)
(3 -2.29479e-15 0)
(3 -2.02e-15 0)
(3 -4.37605e-16 0)
(3 1.48359e-15 0)
(3 2.336e-15 0)
(3 2.38083e-15 0)
(3 3.98626e-15 0)
(3 7.73187e-15 0)
(3 8.77297e-15 0)
(3 8.63408e-15 0)
(3 7.13207e-15 0)
(3 4.03855e-15 0)
(3 3.24828e-15 0)
(3 2.03899e-15 0)
(3 -1.18647e-15 0)
(3 -1.94034e-15 0)
(3 -2.83867e-15 0)
(3 -3.69175e-15 0)
(3 -2.40243e-15 0)
(3 -1.44201e-15 0)
(3 -5.43457e-16 0)
(3 -5.66756e-16 0)
(3 -5.05514e-16 0)
(3 1.27141e-16 0)
(3 1.07341e-15 0)
(3 -1.80483e-17 0)
(3 -8.90654e-16 0)
(3 5.37847e-17 0)
(3 1.32454e-15 0)
(3 2.01515e-15 0)
(3 2.41848e-15 0)
(3 3.05127e-15 0)
(3 3.36766e-15 0)
(3 3.87523e-15 0)
(3 5.09061e-15 0)
(3 6.0304e-15 0)
(3 5.88392e-15 0)
(3 4.61503e-15 0)
(3 1.55934e-15 0)
(3 1.73845e-16 0)
(3 1.11471e-15 0)
(3 3.56335e-16 0)
(3 -1.29741e-15 0)
(3 -2.22522e-15 0)
(3 -2.1801e-15 0)
(3 -7.41627e-16 0)
(3 7.59875e-16 0)
(3 -3.80575e-18 0)
(3 1.16548e-16 0)
(3 1.47059e-16 0)
(3 9.83166e-17 0)
(3 -1.1352e-16 0)
(3 -1.04427e-15 0)
(3 -2.61529e-15 0)
(3 -2.77026e-15 0)
(3 -1.28465e-15 0)
(3 5.0407e-16 0)
(3 7.94209e-16 0)
(3 1.30995e-15 0)
(3 1.23327e-15 0)
(3 1.11666e-15 0)
(3 1.04607e-15 0)
(3 9.06559e-16 0)
(3 9.63468e-16 0)
(3 2.13917e-16 0)
(3 -7.98302e-17 0)
(3 -1.14426e-16 0)
(3 8.4212e-16 0)
(3 2.36442e-15 0)
(3 3.01244e-15 0)
(3 3.48943e-15 0)
(3 3.62041e-15 0)
(3 2.74462e-15 0)
(3 2.17276e-15 0)
(3 2.70728e-15 0)
(3 1.24102e-15 0)
(3 9.17893e-16 0)
(3 4.82245e-16 0)
(3 -2.34253e-16 0)
(3 1.08167e-15 0)
(3 2.22367e-15 0)
(3 2.56101e-15 0)
(3 3.13584e-15 0)
(3 2.85284e-15 0)
(3 1.82244e-15 0)
(3 2.77654e-16 0)
(3 1.01653e-16 0)
(3 -5.2521e-16 0)
(3 -2.65172e-16 0)
(3 4.65514e-16 0)
(3 -1.41586e-15 0)
(3 -3.72569e-15 0)
(3 -2.15126e-15 0)
(3 -4.77258e-16 0)
(3 -1.82122e-16 0)
(3 -2.7746e-16 0)
(3 -1.18861e-15 0)
(3 -1.49708e-15 0)
(3 -1.14796e-15 0)
(3 1.0836e-15 0)
(3 3.22832e-15 0)
(3 3.9816e-15 0)
(3 3.95549e-15 0)
(3 4.1051e-15 0)
(3 4.0453e-15 0)
(3 4.02646e-15 0)
(3 4.14918e-15 0)
(3 4.23409e-15 0)
(3 3.21554e-15 0)
(3 5.15919e-16 0)
(3 -1.03581e-15 0)
(3 -3.91896e-16 0)
(3 -5.29595e-16 0)
(3 -3.82861e-16 0)
(3 -9.55906e-16 0)
(3 -8.88054e-16 0)
(3 -7.06068e-16 0)
(3 -7.34484e-16 0)
(3 -1.52158e-15 0)
(3 1.32471e-16 0)
(3 2.11816e-15 0)
(3 1.58722e-15 0)
(3 9.65085e-16 0)
(3 6.12211e-16 0)
(3 1.86997e-15 0)
(3 3.84789e-15 0)
(3 4.90076e-15 0)
(3 4.69677e-15 0)
(3 5.06911e-15 0)
(3 5.3587e-15 0)
(3 4.99692e-15 0)
(3 5.35988e-15 0)
(3 4.43894e-15 0)
(3 4.12234e-15 0)
(3 2.31055e-15 0)
(3 2.96479e-16 0)
(3 7.02202e-16 0)
(3 1.01333e-15 0)
(3 3.34925e-16 0)
(3 -8.59701e-16 0)
(3 -1.41569e-15 0)
(3 -1.218e-15 0)
(3 1.18533e-16 0)
(3 -6.70717e-17 0)
(3 -3.49369e-16 0)
(3 -5.36928e-16 0)
(3 -1.92711e-16 0)
(3 -3.61806e-16 0)
(3 -1.06327e-15 0)
(3 -1.5806e-15 0)
(3 -1.8234e-15 0)
(3 -1.30106e-15 0)
(3 -5.55262e-16 0)
(3 -1.65601e-16 0)
(3 -3.42262e-17 0)
(3 -4.49499e-16 0)
(3 -8.56798e-16 0)
(3 -5.27447e-16 0)
(3 -4.11896e-17 0)
(3 -1.31223e-16 0)
(3 4.65147e-16 0)
(3 8.26352e-17 0)
(3 1.41708e-16 0)
(3 7.02241e-16 0)
(3 1.26971e-15 0)
(3 1.56721e-15 0)
(3 2.45138e-15 0)
(3 2.5692e-15 0)
(3 1.93699e-15 0)
(3 2.2918e-15 0)
(3 3.52175e-15 0)
(3 3.25935e-15 0)
(3 2.54932e-15 0)
(3 1.74299e-15 0)
(3 1.54459e-15 0)
(3 2.25073e-15 0)
(3 2.89729e-15 0)
(3 3.06341e-15 0)
(3 2.65516e-15 0)
(3 2.25792e-15 0)
(3 2.55558e-16 0)
(3 -7.82465e-16 0)
(3 -9.51974e-16 0)
(3 -8.70994e-16 0)
(3 -5.20699e-16 0)
(3 -1.00107e-15 0)
(3 -1.16482e-15 0)
(3 -9.57009e-16 0)
(3 -1.28671e-15 0)
(3 -1.30279e-15 0)
(3 -1.20286e-15 0)
(3 -1.43371e-15 0)
(3 -1.70362e-15 0)
(3 -5.9972e-16 0)
(3 -6.99655e-17 0)
(3 -3.36802e-16 0)
(3 -3.91281e-16 0)
(3 1.46507e-16 0)
(3 2.25624e-16 0)
(3 4.39028e-16 0)
(3 1.62398e-15 0)
(3 1.06682e-15 0)
(3 6.82485e-16 0)
(3 2.95568e-16 0)
(3 -4.21149e-16 0)
(3 -5.35554e-16 0)
(3 4.22958e-16 0)
(3 1.05681e-15 0)
(3 5.51589e-16 0)
(3 3.16611e-16 0)
(3 -8.44428e-16 0)
(3 -3.12001e-15 0)
(3 -4.26597e-15 0)
(3 -4.33573e-15 0)
(3 -3.47597e-15 0)
(3 -1.93589e-15 0)
(3 1.08144e-15 0)
(3 2.29264e-15 0)
(3 1.84697e-15 0)
(3 1.17544e-15 0)
(3 1.92113e-15 0)
(3 3.28528e-15 0)
(3 3.02216e-15 0)
(3 2.86205e-15 0)
(3 2.80672e-15 0)
(3 3.31618e-15 0)
(3 3.7206e-15 0)
(3 3.75223e-15 0)
(3 4.08721e-15 0)
(3 4.30786e-15 0)
(3 4.13402e-15 0)
(3 3.17563e-15 0)
(3 2.38066e-15 0)
(3 2.44566e-15 0)
(3 1.73584e-15 0)
(3 7.21004e-16 0)
(3 5.12877e-16 0)
(3 9.22035e-16 0)
(3 2.24697e-15 0)
(3 -1.03827e-17 0)
(3 -1.42126e-16 0)
(3 -5.25551e-16 0)
(3 -7.31812e-16 0)
(3 -9.33611e-16 0)
(3 -6.32804e-16 0)
(3 -5.79327e-16 0)
(3 -9.20046e-16 0)
(3 6.65633e-17 0)
(3 5.78918e-17 0)
(3 1.57744e-16 0)
(3 -8.22818e-17 0)
(3 -4.33418e-16 0)
(3 -1.35409e-15 0)
(3 -1.59197e-15 0)
(3 -2.34078e-16 0)
(3 3.89008e-16 0)
(3 5.60874e-16 0)
(3 2.80305e-16 0)
(3 7.58474e-17 0)
(3 5.55445e-16 0)
(3 9.29449e-16 0)
(3 1.21718e-15 0)
(3 1.17714e-15 0)
(3 1.09683e-15 0)
(3 1.62372e-15 0)
(3 2.05324e-15 0)
(3 2.50674e-15 0)
(3 2.66285e-15 0)
(3 2.91747e-15 0)
(3 2.62204e-15 0)
(3 1.9007e-15 0)
(3 1.54612e-15 0)
(3 1.70491e-15 0)
(3 2.11509e-15 0)
(3 1.86113e-15 0)
(3 1.21711e-15 0)
(3 9.38188e-16 0)
(3 1.08394e-15 0)
(3 1.21899e-15 0)
(3 1.03229e-15 0)
(3 5.17682e-16 0)
(3 -1.18717e-16 0)
(3 -7.94523e-18 0)
(3 1.08382e-16 0)
(3 -5.15422e-16 0)
(3 -1.51109e-15 0)
(3 -1.39713e-15 0)
(3 -2.976e-16 0)
(3 1.22291e-16 0)
(3 -5.77162e-16 0)
(3 -1.26613e-15 0)
(3 -2.28618e-15 0)
(3 -3.54953e-15 0)
(3 -4.08085e-15 0)
(3 -3.49256e-15 0)
(3 -3.30865e-15 0)
(3 -9.61918e-16 0)
(3 -3.34894e-16 0)
(3 -8.45741e-16 0)
(3 -2.06767e-15 0)
(3 -2.82063e-15 0)
(3 -1.95201e-15 0)
(3 2.4754e-17 0)
(3 4.15593e-16 0)
(3 -1.94679e-15 0)
(3 -2.57358e-15 0)
(3 -3.33606e-15 0)
(3 -3.91135e-15 0)
(3 -2.87646e-15 0)
(3 -2.42415e-15 0)
(3 -2.01394e-15 0)
(3 -1.90909e-15 0)
(3 -1.33816e-15 0)
(3 3.45873e-16 0)
(3 2.90905e-16 0)
(3 8.31608e-16 0)
(3 9.90078e-16 0)
(3 1.85745e-15 0)
(3 1.65608e-15 0)
(3 2.08062e-15 0)
(3 2.07046e-15 0)
(3 2.21399e-15 0)
(3 1.34364e-15 0)
(3 5.22945e-16 0)
(3 1.87345e-15 0)
(3 3.27486e-15 0)
(3 5.11881e-15 0)
(3 5.9912e-15 0)
(3 4.77633e-15 0)
(3 4.13751e-15 0)
(3 3.23918e-15 0)
(3 2.05371e-15 0)
(3 1.83189e-15 0)
(3 2.69135e-15 0)
(3 3.50096e-15 0)
(3 -6.88727e-17 0)
(3 -8.17341e-17 0)
(3 -1.5999e-17 0)
(3 -1.8056e-16 0)
(3 1.12856e-16 0)
(3 3.57586e-16 0)
(3 5.60754e-16 0)
(3 7.90675e-16 0)
(3 5.41295e-16 0)
(3 1.38979e-16 0)
(3 2.55861e-16 0)
(3 2.75507e-16 0)
(3 -5.9882e-16 0)
(3 -8.52795e-16 0)
(3 -3.8601e-16 0)
(3 1.6007e-16 0)
(3 1.17181e-16 0)
(3 -5.49782e-16 0)
(3 -2.79983e-16 0)
(3 8.04624e-16 0)
(3 1.04593e-15 0)
(3 1.50512e-15 0)
(3 1.31853e-15 0)
(3 3.67054e-17 0)
(3 -1.97841e-16 0)
(3 1.86709e-16 0)
(3 1.25273e-15 0)
(3 1.41935e-15 0)
(3 1.38199e-15 0)
(3 1.8102e-15 0)
(3 2.16202e-15 0)
(3 2.0162e-15 0)
(3 1.59046e-15 0)
(3 1.62376e-15 0)
(3 1.35502e-15 0)
(3 9.79211e-16 0)
(3 1.42388e-15 0)
(3 2.84031e-15 0)
(3 3.80901e-15 0)
(3 4.06307e-15 0)
(3 3.45083e-15 0)
(3 2.55572e-15 0)
(3 2.45162e-15 0)
(3 2.51209e-15 0)
(3 1.03992e-15 0)
(3 9.52164e-16 0)
(3 6.58429e-16 0)
(3 4.70949e-16 0)
(3 -2.77877e-16 0)
(3 -1.06359e-15 0)
(3 -1.48764e-15 0)
(3 -2.63541e-15 0)
(3 -4.36354e-15 0)
(3 -4.75577e-15 0)
(3 -6.68395e-15 0)
(3 -6.99496e-15 0)
(3 -5.82277e-15 0)
(3 -4.8074e-15 0)
(3 -3.26725e-15 0)
(3 -3.14401e-15 0)
(3 -3.08258e-15 0)
(3 -3.27735e-15 0)
(3 -2.84188e-15 0)
(3 -2.27228e-15 0)
(3 -5.603e-16 0)
(3 -2.69638e-16 0)
(3 -1.03964e-15 0)
(3 -1.15002e-15 0)
(3 -1.62776e-16 0)
(3 9.05726e-16 0)
(3 1.7879e-15 0)
(3 1.61005e-15 0)
(3 1.18273e-15 0)
(3 3.43543e-16 0)
(3 4.55292e-16 0)
(3 1.0198e-15 0)
(3 8.48258e-16 0)
(3 -2.90715e-16 0)
(3 -6.42592e-16 0)
(3 8.79539e-16 0)
(3 1.34186e-15 0)
(3 1.12285e-15 0)
(3 2.55999e-16 0)
(3 -1.2546e-15 0)
(3 -7.67696e-16 0)
(3 -7.60063e-17 0)
(3 2.02118e-15 0)
(3 5.05615e-15 0)
(3 6.60529e-15 0)
(3 6.94396e-15 0)
(3 5.92072e-15 0)
(3 4.6246e-15 0)
(3 3.47986e-15 0)
(3 3.29083e-15 0)
(3 3.44533e-15 0)
(3 3.72836e-15 0)
(3 -9.97217e-19 0)
(3 1.58011e-17 0)
(3 1.6565e-16 0)
(3 5.55723e-17 0)
(3 1.10242e-15 0)
(3 1.12762e-15 0)
(3 7.75957e-16 0)
(3 1.00087e-15 0)
(3 2.1452e-16 0)
(3 3.2054e-16 0)
(3 4.28858e-17 0)
(3 -3.6605e-16 0)
(3 -4.93792e-16 0)
(3 1.34515e-16 0)
(3 -6.39634e-16 0)
(3 -1.07194e-15 0)
(3 -1.32262e-15 0)
(3 -1.3171e-15 0)
(3 -7.03418e-16 0)
(3 1.21288e-15 0)
(3 1.99566e-15 0)
(3 1.76872e-15 0)
(3 1.52006e-15 0)
(3 9.08024e-16 0)
(3 7.29589e-16 0)
(3 7.76124e-16 0)
(3 7.70434e-16 0)
(3 4.0482e-16 0)
(3 2.60594e-16 0)
(3 5.07918e-16 0)
(3 3.63866e-16 0)
(3 7.88031e-16 0)
(3 8.35856e-16 0)
(3 1.28656e-15 0)
(3 1.30523e-15 0)
(3 1.40392e-15 0)
(3 1.47534e-15 0)
(3 2.13458e-15 0)
(3 3.03203e-15 0)
(3 3.70593e-15 0)
(3 3.07826e-15 0)
(3 3.27811e-15 0)
(3 3.32726e-15 0)
(3 2.66967e-15 0)
(3 9.33802e-16 0)
(3 1.09326e-15 0)
(3 6.56382e-16 0)
(3 2.61095e-16 0)
(3 -7.5292e-16 0)
(3 -1.68211e-15 0)
(3 -2.79896e-15 0)
(3 -4.41971e-15 0)
(3 -4.55518e-15 0)
(3 -6.34133e-15 0)
(3 -8.31376e-15 0)
(3 -8.37117e-15 0)
(3 -5.84095e-15 0)
(3 -3.94054e-15 0)
(3 -3.66213e-15 0)