/*--------------------------------*- C++ -*----------------------------------*\
  =========                 |
  \\      /  F ield         | OpenFOAM: The Open Source CFD Toolbox
   \\    /   O peration     | Website:  https://openfoam.org
    \\  /    A nd           | Version:  7
     \\/     M anipulation  |
\*---------------------------------------------------------------------------*/
FoamFile
{
    version     2.0;
    format      ascii;
    class       volScalarField;
    location    "2.8";
    object      p;
}
// * * * * * * * * * * * * * * * * * * * * * * * * * * * * * * * * * * * * * //

dimensions      [1 -1 -2 0 0 0 0];

internalField   nonuniform List<scalar> 
4608
(
1
1
1
1
1
1
1
1
1
1
1
1
1
1
1
1
1
1
1
1
1
1
1
1
1
1
1
1
1
1
1
1
1
1
1
1
1
1
1
1
1
1
1
1
1
1
1
1
1
1
1
1
1
1
1
1
1
1
1
1
1
1
1
1
1
1
1
1
1
1
1
1
1
1
1
1
1
1
1
1
1
1
1
1
1
1
1
1
1
1
1
1
1
1
1
1
1
1
1
1
1
1
1
1
1
1
1
1
1
1
1
1
1
1
1
1
1
1
1
1
1
1
1
1
1
1
1
1
1
1
1
1
1
1
1
1
1
1
1
1
1
1
1
1
1
1
1
1
1
1
1
1
1
1
1
1
1
1
1
1
1
1
1
1
1
1
1
1
1
1
1
1
1
1
1
1
1
1
1
1
1
1
1
1
1
1
1
1
1
1
1
1
1
1
1
1
1
1
1
1
1
1
1
1
1
1
1
1
1
1
1
1
1
1
1
1
1
1
1
1
1
1
1
1
1
1
1
1
1
1
1
1
1
1
1
1
1
1
1
1
1
1
1
1
1
1
1
1
1
1
1
1
1
1
1
1
1
1
1
1
1
1
1
1
1
1
1
1
1
1
1
1
1
1
1
1
1
1
1
1
1
1
1
1
1
1
1
1
1
1
1
1
1
1
1
1
1
1
1
1
1
1
1
1
1
1
1
1
1
1
1
1
1
1
1
1
1
1
1
1
1
1
1
1
1
1
1
1
1
1
1
1
1
1
1
1
1
1
1
1
1
1
1
1
1
1
1
1
1
1
1
1
1
1
1
1
1
1
1
1
1
1
1
1
1
1
1
1
1
1
1
1
1
1
1
1
1
1
1
1
1
1
1
1
1
1
1
1
1
1
1
1
1
1
1
1
1
1
1
1
1
1
1
1
1
1
1
1
1
1
1
1
1
1
1
1
1
1
1
1
1
1
1
1
1
1
1
1
1
1
1
1
1
1
1
1
1
1
1
1
1
1
1
1
1
1
1
1
1
1
1
1
1
1
1
1
1
1
1
1
1
1
1
1
1
1
1
1
1
1
1
1
1
1
1
1
1
1
1
1
1
1
1
1
1
1
1
1
1
1
1
1
1
1
1
1
1
1
1
1
1
1
1
1
1
1
1
1
1
1
1
1
1
1
1
1
1
1
1
1
1
1
1
1
1
1
1
1
1
1
1
1
1
1
1
1
1
1
1
1
1
1
1
1
1
1
1
1
1
1
1
1
1
1
1
1
1
1
1
1
1
1
1
1
1
1
1
1
1
1
1
1
1
1
1
1
1
1
1
1
1
1
1
1
1
1
1
1
1
1
1
1
1
1
1
1
1
1
1
1
1
1
1
1
1
1
1
1
1
1
1
1
1
1
1
1
1
1
1
1
1
1
1
1
1
1
1
1
1
1
1
1
1
1
1
1
1
1
1
1
1
1
1
1
1
1
1
1
1
1
1
1
1
1
1
1
1
1
1
1
1
1
1
1
1
1
1
1
1
1
1
1
1
1
1
1
1
1
1
1
1
1
1
1
1
1
1
1
1
1
1
1
1
1
1
1
1
1
1
1
1
1
1
1
1
1
1
1
1
1
1
1
1
1
1
1
1
1
1
1
1
1
1
1
1
1
1
1
1
1
1
1
1
1
1
1
1
1
1
1
1
1
1
1
1
1
1
1
1
1
1
1
1
1
1
1
1
1
1
1
1
1
1
1
1
1
1
1
1.29178
1.76904
2.31887
2.97722
3.64701
4.27744
4.84742
5.30408
5.37025
5.17047
4.72402
4.21226
3.82885
3.66559
3.56593
3.57804
3.6212
3.66714
3.70519
3.72259
3.73221
3.74372
3.76909
3.78433
1.00225
1.0183
1.08926
1.21373
1.47695
1.85275
2.38247
2.96925
3.58605
3.8456
4.03369
4.0273
3.97612
3.87389
3.75063
3.72682
3.70108
3.68558
3.70013
3.71327
3.72491
3.73975
3.75866
3.77625
1
0.999944
1.00024
1.0002
1.00364
1.02363
1.10852
1.36393
1.97673
3.00679
3.82938
4.30414
4.36057
4.28443
4.10567
3.85271
3.6736
3.66729
3.69228
3.70577
3.71382
3.72253
3.73218
3.74957
1
0.999998
0.999998
0.999999
0.999987
1.00003
0.999909
1.00195
1.03112
1.31117
2.0209
3.19638
3.88075
4.11637
4.07324
3.98153
3.80892
3.74608
3.74418
3.71294
3.70005
3.70598
3.71683
3.73322
1
1
1
1
0.999999
0.999999
0.999988
0.999991
0.999897
1.00172
1.04016
1.35779
2.2183
3.28286
4.0375
4.09459
4.02117
3.94009
3.83376
3.7385
3.70752
3.7133
3.7245
3.74115
1
1
1
1
1
1
1
1
0.99999
0.99999
0.999911
1.00282
1.08364
1.48506
2.51801
3.48974
4.00213
3.99607
3.9357
3.84459
3.76389
3.75027
3.73362
3.73626
1
1
1
1
1
1
1
1
1
0.999999
0.999991
0.999981
1.00005
1.0082
1.17489
1.79594
2.94752
3.56834
3.88554
3.89961
3.85259
3.75318
3.7281
3.71172
1
1
1
1
1
1
1
1
1
1
1
0.999998
0.999998
0.999971
1.00147
1.03239
1.36989
2.21577
3.38222
3.74444
3.78602
3.75584
3.73808
3.71881
1
1
1
1
1
1
1
1
1
1
1
1
1
0.999994
0.999996
0.999981
1.00888
1.12343
1.7402
2.77516
3.604
3.81882
3.80674
3.7888
1
1
1
1
1
1
1
1
1
1
1
1
1
1
0.999999
0.999996
0.999977
1.00101
1.04351
1.40838
2.41279
3.2388
3.61409
3.77767
1
1
1
1
1
1
1
1
1
1
1
1
1
1
1
1
0.999996
0.999992
1.00019
1.0156
1.20606
2.00793
3.11392
3.66277
1
1
1
1
1
1
1
1
1
1
1
1
1
1
1
1
1
0.999999
0.999997
1.00002
1.00492
1.1303
1.74811
2.77651
1
1
1
1
1
1
1
1
1
1
1
1
1
1
1
1
1
1
0.999999
0.999999
0.999999
1.00286
1.06336
1.51764
1
1
1
1
1
1
1
1
1
1
1
1
1
1
1
1
1
1
1
1
1
0.999997
1.00088
1.03125
1
1
1
1
1
1
1
1
1
1
1
1
1
1
1
1
1
1
1
1
1
0.999999
0.999997
1.00007
1
1
1
1
1
1
1
1
1
1
1
1
1
1
1
1
1
1
1
1
1
1
0.999999
0.999996
1
1
1
1
1
1
1
1
1
1
1
1
1
1
1
1
1
1
1
1
1
1
1
0.999996
1
1
1
1
1
1
1
1
1
1
1
1
1
1
1
1
1
1
1
1
1
0.999999
1.00001
1.00004
1
1
1
1
1
1
1
1
1
1
1
1
1
1
1
1
1
1
1
1
1
0.999997
1.00115
1.02587
1
1
1
1
1
1
1
1
1
1
1
1
1
1
1
1
1
1
0.999999
0.999999
1
1.00239
1.06489
1.49526
1
1
1
1
1
1
1
1
1
1
1
1
1
1
1
1
1
0.999999
0.999997
1.00002
1.00519
1.12399
1.702
2.87601
1
1
1
1
1
1
1
1
1
1
1
1
1
1
1
1
0.999997
0.999992
1.00022
1.01497
1.21053
1.98812
3.08265
3.70043
1
1
1
1
1
1
1
1
1
1
1
1
1
1
0.999999
0.999996
0.999977
1.001
1.04359
1.40875
2.40758
3.21616
3.6374
3.78943
1
1
1
1
1
1
1
1
1
1
1
1
1
0.999994
0.999996
0.999981
1.00888
1.12356
1.73464
2.79162
3.58736
3.81305
3.80941
3.79156
1
1
1
1
1
1
1
1
1
1
1
0.999998
0.999998
0.999971
1.00147
1.03236
1.37082
2.21372
3.37841
3.75398
3.7824
3.75306
3.73655
3.72276
1
1
1
1
1
1
1
1
1
0.999999
0.999991
0.999981
1.00005
1.0082
1.17474
1.79645
2.94751
3.56535
3.88747
3.90183
3.85393
3.7497
3.72758
3.71379
1
1
1
1
1
1
1
1
0.99999
0.99999
0.999911
1.00282
1.08368
1.48496
2.51734
3.49094
4.0015
3.99548
3.93545
3.8462
3.76342
3.7486
3.73423
3.73603
1
1
1
1
0.999999
0.999999
0.999988
0.999991
0.999897
1.00171
1.04016
1.35778
2.2186
3.28193
4.03785
4.09513
4.0213
3.9396
3.83342
3.73993
3.70681
3.7126
3.72526
3.74132
1
0.999998
0.999998
0.999999
0.999987
1.00003
0.999909
1.00195
1.03112
1.31119
2.02075
3.19692
3.88029
4.11608
4.07337
3.98169
3.80964
3.74497
3.74424
3.71396
3.69993
3.70585
3.71703
3.73329
1
0.999944
1.00024
1.0002
1.00364
1.02364
1.10853
1.36393
1.97675
3.00687
3.82924
4.30414
4.36051
4.28444
4.10564
3.85298
3.67369
3.66665
3.69237
3.70599
3.71357
3.72229
3.73232
3.74969
1.00224
1.01831
1.08927
1.21371
1.47694
1.85276
2.3825
2.96921
3.5861
3.84564
4.03368
4.0272
3.97618
3.87396
3.75055
3.72682
3.70097
3.68564
3.70019
3.71324
3.72479
3.73968
3.75878
3.77625
1.29178
1.76904
2.31883
2.97726
3.64709
4.27742
4.84734
5.30402
5.37025
5.17052
4.72411
4.21224
3.82903
3.6656
3.56582
3.57796
3.62119
3.66719
3.70516
3.7225
3.73207
3.74371
3.76926
3.78428
2.66697
1.72952
1.14571
0.755902
0.671734
0.712986
0.72434
0.715816
0.74919
0.815399
0.868224
0.917068
0.99323
1.04734
1.04821
1.03321
1.02831
1.0418
1.06639
1.08361
1.08112
1.07015
1.05367
1.1066
1.55219
2.81187
4.57749
6.78208
8.82781
9.26949
8.6255
7.63668
6.94921
6.61908
6.39443
6.13073
5.83627
5.58513
5.38776
5.21059
5.03636
4.86171
4.6859
4.51191
4.34701
4.19361
4.04615
3.89348
3.73678
3.59065
3.46374
3.35459
3.26893
3.20364
3.14267
3.07218
2.98265
2.87577
2.76682
2.67115
2.5873
2.51105
2.44396
2.38327
2.32378
2.26249
2.20901
2.15599
2.10489
2.06645
2.02738
2.06657
2.21381
2.55601
3.17134
3.90824
4.53369
5.14311
5.51592
5.50437
5.36821
5.10284
4.78656
4.50522
4.35961
4.31639
4.29337
4.29941
4.27537
4.2275
4.17492
4.08062
3.88035
3.70146
3.65765
3.61253
3.37782
2.7566
2.24504
1.76019
1.3721
1.26954
1.17987
1.03986
0.975302
0.950219
0.918433
0.903185
0.918378
0.955765
0.971871
0.973595
0.978322
0.996446
1.01867
1.03911
1.03844
1.04301
1.10874
1.58799
2.63895
3.07207
3.56859
4.29774
5.54271
6.65276
7.43842
7.46609
7.14872
6.79489
6.47577
6.16529
5.8567
5.63093
5.46517
5.28844
5.10225
4.92973
4.76045
4.59308
4.43041
4.26991
4.10908
3.94908
3.7974
3.66306
3.54484
3.43737
3.34078
3.25609
3.18909
3.11809
3.0276
2.91801
2.80996
2.72241
2.64856
2.57828
2.50472
2.43182
2.3647
2.30084
2.24784
2.19751
2.14187
2.14231
2.20556
2.41671
2.73591
3.02953
3.25828
3.57429
3.92027
4.32846
4.77055
4.96889
4.995
4.94899
4.78309
4.54877
4.41211
4.35753
4.32123
4.30977
4.29397
4.25628
4.20182
4.10421
3.91681
3.73891
3.69526
3.65166
3.65239
3.32775
2.86023
2.429
1.95563
1.6012
1.44257
1.27489
1.0792
1.02852
0.987096
0.924787
0.919505
0.942689
0.953164
0.947554
0.945589
0.95753
0.97704
0.997743
1.02229
1.15671
1.71434
2.6845
3.32712
3.3489
3.31385
3.32211
3.52843
4.49822
6.05473
7.14308
7.27831
7.05137
6.53731
6.10629
5.82656
5.61359
5.41224
5.19825
4.99129
4.80957
4.65012
4.49466
4.34009
4.18583
4.03126
3.88643
3.75798
3.64023
3.53189
3.42669
3.3106
3.18319
3.06948
2.99573
2.92634
2.84617
2.76681
2.69776
2.62713
2.55542
2.47276
2.38067
2.29717
2.23419
2.19656
2.17925
2.19561
2.3137
2.63098
3.02623
3.27082
3.38905
3.36741
3.36289
3.4285
3.66155
4.08073
4.47523
4.7348
4.84944
4.81207
4.61208
4.45859
4.38092
4.33599
4.31193
4.26913
4.22126
4.16703
4.07666
3.92668
3.74818
3.67764
3.62577
3.71385
3.5995
3.29182
2.93383
2.53571
2.04945
1.80109
1.65944
1.41422
1.26384
1.20873
1.10088
1.00197
1.00441
1.00141
0.975329
0.95241
0.936739
0.938222
0.951081
1.10883
1.76829
2.75814
3.2995
3.3239
3.29597
3.20464
3.08839
2.96625
3.04801
3.64781
5.12163
6.46866
6.5345
6.45045
6.17121
5.8964
5.63853
5.39421
5.17204
4.97745
4.79157
4.61153
4.43953
4.28228
4.1421
4.01005
3.88452
3.77075
3.65709
3.54652
3.44277
3.32903
3.19746
3.0512
2.93623
2.86959
2.81563
2.76506
2.70582
2.63573
2.56044
2.47593
2.38233
2.29483
2.24146
2.21623
2.25296
2.47012
2.87939
3.35298
3.53173
3.54872
3.52156
3.43898
3.34886
3.27032
3.26904
3.37885
3.62276
4.02314
4.41201
4.59643
4.55913
4.54318
4.49501
4.43098
4.34681
4.25602
4.18826
4.1385
4.0717
3.94839
3.77394
3.68864
3.63126
3.73633
3.70615
3.57156
3.29428
2.97777
2.58102
2.15804
1.95333
1.77948
1.56951
1.4135
1.26648
1.11151
1.06048
1.05023
1.02379
0.973474
0.946659
0.966232
1.15974
1.90885
2.77894
3.2513
3.30355
3.23888
3.12619
3.01893
2.91562
2.84358
2.74625
2.75878
3.06153
4.18599
5.37767
6.07391
6.09407
5.92472
5.63493
5.36021
5.15933
4.98559
4.79506
4.59364
4.39675
4.22058
4.06177
3.90307
3.7614
3.68347
3.63938
3.58778
3.51222
3.41183
3.2741
3.09039
2.91297
2.80591
2.73648
2.68756
2.6541
2.63625
2.59186
2.52424
2.4332
2.3369
2.31298
2.40292
2.70269
3.1504
3.57164
3.71248
3.68971
3.6226
3.54258
3.45299
3.35428
3.24452
3.16571
3.14636
3.17862
3.35572
3.73786
4.15687
4.43066
4.53092
4.51117
4.42428
4.32811
4.24282
4.16926
4.10371
4.02322
3.92643
3.82041
3.7167
3.61825
3.74807
3.73852
3.70417
3.56108
3.29323
2.97992
2.64284
2.30236
2.03565
1.85912
1.70924
1.57043
1.34145
1.18309
1.18137
1.1694
1.11621
1.12951
1.38248
2.19795
3.08127
3.37558
3.33608
3.22564
3.10119
2.98129
2.88424
2.80264
2.72974
2.65361
2.57077
2.49623
2.61026
3.22451
4.36664
5.36888
5.54175
5.50794
5.34073
5.15934
4.98085
4.78437
4.58267
4.38363
4.18975
4.00977
3.85974
3.74976
3.65445
3.56048
3.48472
3.41797
3.33791
3.23055
3.06943
2.88011
2.76446
2.70955
2.66738
2.62306
2.57259
2.52127
2.49908
2.45971
2.471
2.63136
3.02061
3.44043
3.7569
3.87401
3.86013
3.79507
3.70743
3.60571
3.49
3.35578
3.21815
3.14212
3.10955
3.10278
3.11613
3.22915
3.51036
3.89492
4.22078
4.31317
4.30169
4.28511
4.24725
4.17126
4.08385
3.99912
3.92211
3.84649
3.74604
3.62394
3.72451
3.73453
3.71975
3.68446
3.54411
3.27928
2.97589
2.70906
2.43611
2.08887
1.91281
1.83888
1.69969
1.4753
1.3115
1.26775
1.33114
1.69844
2.64329
3.5468
3.68811
3.5598
3.34111
3.16684
3.04471
2.92773
2.82835
2.75227
2.67487
2.59886
2.50329
2.42265
2.30022
2.30027
2.54815
3.44671
4.55036
5.16657
5.26684
5.1633
4.97683
4.78563
4.60141
4.40122
4.17997
3.98052
3.83604
3.72257
3.61745
3.51722
3.43779
3.3716
3.29744
3.19983
3.04805
2.87195
2.76577
2.70501
2.64775
2.59596
2.55069
2.53578
2.55197
2.66602
2.96991
3.42589
3.73367
3.87367
3.95383
3.92998
3.85965
3.78274
3.70163
3.60337
3.4817
3.33431
3.20992
3.15655
3.11979
3.08843
3.07915
3.0794
3.1297
3.28532
3.53528
3.86068
4.0712
4.18042
4.20242
4.15776
4.07208
3.99832
3.93626
3.86481
3.78363
3.65317
3.70392
3.70517
3.70436
3.68412
3.63803
3.50807
3.26287
2.96715
2.75319
2.50271
2.19505
1.98736
1.89495
1.77685
1.59757
1.7012
2.28567
3.31839
4.13282
4.13862
3.9732
3.70966
3.44626
3.25442
3.09531
2.95828
2.83556
2.74293
2.64921
2.55532
2.47051
2.384
2.27041
2.18693
2.10926
2.19359
2.72012
3.71157
4.60794
4.84443
4.84372
4.72419
4.57118
4.3939
4.17495
3.95828
3.8084
3.69466
3.59575
3.50238
3.41908
3.34129
3.25295
3.14062
3.00861
2.87777
2.76872
2.68264
2.62089
2.5972
2.58696
2.65723
2.93975
3.39581
3.86892
4.03241
4.07037
4.07894
4.02395
3.94166
3.85573
3.78045
3.7064
3.61668
3.48983
3.31991
3.22262
3.18001
3.13501
3.09595
3.06912
3.04623
3.0383
3.01828
3.05109
3.17647
3.48558
3.77858
3.97659
4.07529
4.07167
4.01844
3.97075
3.91618
3.84057
3.68332
3.75516
3.72706
3.70998
3.69796
3.68364
3.62541
3.48492
3.25375
2.98054
2.76051
2.53
2.26997
2.07318
2.00048
2.23849
3.19543
4.34265
4.78318
4.68607
4.40897
4.116
3.85007
3.61614
3.41711
3.23445
3.07262
2.92538
2.79105
2.65884
2.53021
2.43622
2.3556
2.26339
2.15606
2.07555
1.9904
1.99187
2.22009
2.97504
3.94274
4.50271
4.56869
4.49635
4.34186
4.14834
3.93156
3.77377
3.66123
3.56987
3.48076
3.39778
3.30656
3.19618
3.06931
2.9577
2.86466
2.76852
2.68526
2.64525
2.66181
2.84457
3.28918
3.86301
4.27774
4.30829
4.22734
4.14183
4.06224
3.99546
3.92936
3.86461
3.79354
3.71992
3.63316
3.4993
3.32538
3.24068
3.19817
3.15472
3.11302
3.07745
3.04622
3.01536
2.98182
2.90934
2.86097
2.93931
3.19385
3.55482
3.84658
4.01817
4.03082
3.98746
3.93162
3.86631
3.70217
3.77728
3.74928
3.72345
3.71742
3.71681
3.69636
3.62417
3.47455
3.25845
2.99472
2.76794
2.502
2.52657
3.02342
4.25015
5.45998
5.58221
5.36292
4.99543
4.65199
4.35029
4.07921
3.82824
3.58935
3.36568
3.16698
3.0007
2.85498
2.7206
2.59092
2.47851
2.36755
2.25528
2.13887
2.05055
1.96313
1.90253
1.85278
1.93309
2.38876
3.23978
3.9788
4.233
4.20428
4.0572
3.88541
3.74048
3.61601
3.51208
3.41442
3.33231
3.237
3.12794
3.02122
2.92912
2.84418
2.78051
2.72447
2.7812
3.10803
3.72542
4.26474
4.59031
4.6215
4.54812
4.34267
4.13442
4.0363
3.97039
3.91413
3.86325
3.80453
3.73242
3.64335
3.51391
3.35484
3.26347
3.21491
3.17056
3.12808
3.08857
3.05216
3.01119
2.96436
2.89297
2.80097
2.75812
2.80585
3.01686
3.36054
3.73467
3.9107
3.91124
3.88918
3.84246
3.69542
3.68419
3.6632
3.68141
3.70483
3.7114
3.7132
3.68202
3.60026
3.43384
3.24106
3.01635
3.20401
4.21702
5.71008
6.40076
6.33616
5.99526
5.59261
5.22339
4.89259
4.59076
4.30889
4.03987
3.77922
3.5316
3.2976
3.08486
2.89441
2.73504
2.61727
2.5229
2.41458
2.29668
2.18451
2.07782
1.97802
1.87745
1.81207
1.75221
1.76126
1.96671
2.55485
3.35046
3.86108
3.94544
3.89976
3.7453
3.60082
3.48364
3.36206
3.24597
3.14483
3.05636
2.96895
2.90632
2.85269
2.8636
3.01535
3.48648
4.209
4.62442
4.69
4.68037
4.62427
4.51196
4.35976
4.19737
4.07054
3.9802
3.90254
3.84662
3.79763
3.73598
3.65189
3.53257
3.39538
3.29692
3.23593
3.1866
3.14253
3.10066
3.05869
3.00836
2.94205
2.86165
2.79491
2.73767
2.70255
2.72439
2.87828
3.18276
3.54214
3.74064
3.79353
3.78202
3.67187
3.40755
3.75971
3.8123
3.79542
3.73748
3.69443
3.68713
3.66299
3.55083
3.55763
4.14766
5.72928
7.22083
7.65047
7.42314
6.8348
6.27776
5.81524
5.42656
5.08581
4.77893
4.49116
4.21164
3.93665
3.67128
3.41951
3.19283
3.00338
2.84466
2.69545
2.54558
2.40249
2.28695
2.21076
2.12547
2.02659
1.91859
1.82501
1.73822
1.67821
1.64095
1.70734
2.06197
2.79747
3.41736
3.66414
3.66531
3.61224
3.49191
3.34409
3.1936
3.08632
3.02208
2.96711
2.95588
3.05394
3.42278
4.02881
4.64016
4.96989
4.96963
4.86661
4.71119
4.56509
4.44592
4.35145
4.24351
4.1183
4.00992
3.92011
3.84832
3.78554
3.71178
3.61878
3.5152
3.41841
3.33651
3.26851
3.21086
3.16052
3.11077
3.05866
3.00046
2.92863
2.85043
2.78788
2.74087
2.69392
2.65499
2.66051
2.74336
2.96126
3.27755
3.49633
3.61194
3.60026
2.47181
3.44055
3.73275
3.72187
3.70445
3.68999
3.68177
3.71027
4.00623
5.29678
7.52989
8.49056
8.37522
8.12189
7.65878
7.11579
6.55856
6.03496
5.58311
5.21099
4.90604
4.63186
4.35689
4.07398
3.78814
3.51566
3.27672
3.0754
2.90037
2.75126
2.61821
2.48988
2.36251
2.2385
2.11729
2.01409
1.94698
1.87654
1.79225
1.691
1.60777
1.56653
1.57681
1.76141
2.29941
2.94907
3.37718
3.43518
3.38951
3.2912
3.13954
3.03803
3.02121
3.09038
3.37657
3.98389
4.66792
5.06165
5.07211
4.99711
4.91705
4.84824
4.74957
4.60167
4.45969
4.36049
4.26771
4.16378
4.06024
3.95912
3.86086
3.77418
3.68724
3.58994
3.49853
3.42496
3.35968
3.2957
3.23212
3.17402
3.11967
3.05906
2.98653
2.90935
2.85596
2.81176
2.76569
2.70783
2.63987
2.60043
2.59326
2.62917
2.75514
2.97957
3.24437
3.43519
1.36558
2.31748
3.17827
3.53513
3.71674
3.75437
3.92323
4.71565
6.58077
8.79729
9.93263
9.79615
9.06522
8.32554
7.78923
7.28135
6.75885
6.2445
5.76803
5.34236
4.9815
4.69362
4.43433
4.16158
3.87979
3.61018
3.37248
3.17363
2.98905
2.79842
2.62069
2.4919
2.39766
2.29505
2.18469
2.07881
1.96277
1.83806
1.73838
1.66281
1.59575
1.54746
1.50749
1.49732
1.58337
1.89463
2.50044
2.99266
3.19723
3.17935
3.10737
3.1075
3.33022
3.86887
4.58504
5.22811
5.55859
5.51963
5.29629
5.01941
4.85182
4.77628
4.69013
4.57916
4.4571
4.34502
4.24938
4.16941
4.09011
3.99688
3.88734
3.77942
3.67743
3.57984
3.49741
3.42924
3.36772
3.30893
3.24673
3.1761
3.10912
3.04774
2.98263
2.91987
2.87097
2.82783
2.78436
2.7322
2.66322
2.5976
2.54428
2.50748
2.51276
2.57187
2.7303
3.1114
1.02444
1.24764
2.05261
2.95758
3.75446
4.23716
5.664
7.73052
9.28706
10.0244
10.0384
9.84662
9.40189
8.72347
8.05171
7.42377
6.86369
6.3861
5.95674
5.54097
5.1249
4.7499
4.42517
4.14055
3.88636
3.66368
3.46032
3.27463
3.07789
2.86632
2.68942
2.53898
2.39933
2.27362
2.15496
2.0563
1.9647
1.86389
1.75961
1.67428
1.60821
1.55628
1.50122
1.45225
1.40205
1.41473
1.57387
2.01027
2.57153
3.04987
3.277
3.72658
4.54384
5.22775
5.54775
5.63929
5.60558
5.51509
5.28541
5.06019
4.89848
4.76969
4.66173
4.54834
4.453
4.39331
4.3234
4.22896
4.12678
4.01714
3.90587
3.78849
3.6675
3.56909
3.50589
3.45931
3.41656
3.36582
3.29412
3.20362
3.1169
3.04961
2.9955
2.94539
2.89609
2.8507
2.80178
2.75138
2.70628
2.63118
2.53347
2.46296
2.43096
2.43049
2.46093
2.72959
1.00035
1.0149
1.18171
1.89581
3.98901
5.85711
8.19191
9.86547
10.7914
10.6478
10.1943
9.78519
9.48938
8.94804
8.20439
7.49335
6.90926
6.4214
5.99337
5.66382
5.35324
4.95714
4.55462
4.21884
3.9216
3.67686
3.4628
3.24906
3.0753
2.96248
2.82844
2.65468
2.46761
2.32161
2.20425
2.09592
1.97989
1.8675
1.79885
1.73929
1.68132
1.61768
1.53492
1.44997
1.38099
1.33711
1.34149
1.41379
1.78076
2.79196
3.82547
4.78442
5.67126
6.13749
6.1121
5.98006
5.65855
5.35407
5.18953
5.07332
4.95819
4.80464
4.6605
4.55691
4.48595
4.39345
4.27342
4.16209
4.06689
3.98263
3.88599
3.77343
3.66267
3.58472
3.53706
3.48737
3.42172
3.33694
3.23891
3.13674
3.0613
3.00989
2.97699
2.95596
2.93483
2.90408
2.85696
2.79499
2.70692
2.60708
2.51289
2.44442
2.40788
2.38869
2.39224
2.50942
1.00062
1.01414
1.15496
1.94735
3.45091
6.2135
8.43029
9.70258
10.8696
10.5962
9.96235
9.57649
9.29487
8.8094
8.17839
7.57796
7.04509
6.56437
6.13007
5.69649
5.2523
4.83667
4.43978
4.14806
3.97293
3.78127
3.56485
3.34856
3.1379
2.92086
2.7193
2.53787
2.37186
2.2673
2.22456
2.16739
2.06425
1.92894
1.78261
1.6736
1.60493
1.552
1.4828
1.42543
1.39177
1.3554
1.3604
1.45278
1.8866
2.68929
3.95978
5.05091
5.60296
6.08968
6.15766
5.91243
5.50463
5.25185
5.16356
5.09584
5.00367
4.85275
4.70055
4.58984
4.49196
4.36931
4.23923
4.13598
4.06205
3.98731
3.87607
3.74057
3.68394
3.6567
3.61167
3.5536
3.47462
3.35728
3.22055
3.11309
3.05143
3.01903
2.9922
2.96281
2.92858
2.88675
2.83265
2.76269
2.6813
2.58976
2.50167
2.44158
2.40781
2.38799
2.39261
2.48519
1.03124
1.28682
1.95583
3.0357
3.349
4.44136
5.96646
7.72625
9.55645
9.96544
9.89294
9.64229
9.19924
8.58222
7.99842
7.45026
6.92165
6.45431
6.03813
5.61407
5.18832
4.8067
4.47057
4.15491
3.85206
3.604
3.39303
3.20388
3.0391
2.87342
2.69018
2.48285
2.34786
2.27938
2.18169
2.06855
1.98348
1.89097
1.78102
1.68119
1.59919
1.52805
1.47058
1.4311
1.39847
1.41202
1.57231
2.02258
2.69995
2.92457
3.34664
4.01839
4.52751
5.2436
5.58273
5.52965
5.47566
5.38915
5.26305
5.07928
4.94251
4.87602
4.79208
4.66824
4.50696
4.34754
4.22209
4.12745
4.04586
3.96252
3.87113
3.78183
3.69854
3.62323
3.56694
3.51332
3.44224
3.32969
3.19488
3.1263
3.09511
3.06625
3.03278
2.99599
2.95341
2.90144
2.83867
2.75335
2.6578
2.57628
2.52153
2.46676
2.43852
2.44524
2.48996
2.76344
1.44037
2.31461
3.15706
3.64626
3.66152
3.72939
3.95544
4.70192
6.55704
8.86426
9.80473
9.62275
8.94569
8.25938
7.80241
7.3676
6.87354
6.3612
5.86926
5.41748
5.02075
4.67501
4.36242
4.06754
3.78857
3.55254
3.35903
3.1881
3.01575
2.82531
2.6445
2.50867
2.39328
2.27081
2.14876
2.01718
1.94665
1.90775
1.8415
1.74949
1.64676
1.54678
1.50072
1.46528
1.5152
1.84945
2.41735
2.99975
3.24325
3.19698
3.14131
3.18198
3.31634
3.7813
4.49251
5.14857
5.43933
5.45008
5.31247
5.08338
4.88666
4.81908
4.75124
4.63549
4.48092
4.33296
4.21929
4.13009
4.04819
3.95968
3.86317
3.77669
3.69533
3.61957
3.55313
3.48853
3.41361
3.31496
3.20855
3.11298
3.04768
3.01233
2.9817
2.94887
2.9122
2.8726
2.82279
2.74635
2.64166
2.54318
2.50222
2.4974
2.50782
2.59788
2.80539
3.20773
2.65438
3.34748
3.65417
3.70648
3.68307
3.68332
3.71867
3.77075
4.05006
5.41586
7.63305
8.40267
8.35378
8.12422
7.71309
7.21509
6.66063
6.11627
5.62569
5.2079
4.85517
4.54506
4.25846
3.98983
3.74413
3.52192
3.31301
3.11434
2.94126
2.79592
2.64879
2.48378
2.32451
2.18583
2.08509
2.00534
1.92851
1.84861
1.77138
1.69519
1.64066
1.56896
1.57513
1.75304
2.25863
2.90919
3.3455
3.46298
3.43617
3.36429
3.2106
3.06859
2.98459
3.02114
3.28472
3.9271
4.70565
5.14129
5.1249
5.04325
4.95815
4.86157
4.72881
4.57113
4.4317
4.32349
4.23814
4.15348
4.06178
3.97158
3.89304
3.81157
3.71448
3.61425
3.5248
3.45008
3.38904
3.33135
3.25227
3.14659
3.0529
3.00006
2.96935
2.93864
2.90602
2.86737
2.80765
2.72568
2.6368
2.55467
2.53873
2.5781
2.74124
3.01045
3.34971
3.56847
3.46764
3.69997
3.76906
3.75996
3.72649
3.71162
3.69735
3.66519
3.55596
3.57871
4.21978
5.73152
7.24648
7.67776
7.44921
6.87589
6.3091
5.82588
5.40544
5.03452
4.70347
4.40197
4.12793
3.88185
3.65917
3.45402
3.26409
3.08299
2.91372
2.74672
2.56978
2.3958
2.26023
2.1717
2.08873
2.00119
1.91224
1.83713
1.76244
1.70705
1.66439
1.7332
2.11763
2.80675
3.43281
3.67162
3.67702
3.61193
3.49225
3.35944
3.20532
3.05557
2.96801
2.94863
2.94712
3.06066
3.48375
4.14043
4.73557
5.00315
4.98334
4.84147
4.63834
4.51124
4.43123
4.35713
4.27532
4.17038
4.05079
3.94618
3.86794
3.7911
3.69741
3.59617
3.5064
3.42989
3.36087
3.29451
3.22913
3.15572
3.07026
3.00761
2.96745
2.92927
2.88753
2.83617
2.77343
2.71604
2.65738
2.64207
2.69213
2.88758
3.19194
3.46584
3.67736
3.69749
3.71288
3.66943
3.66595
3.68221
3.69544
3.70955
3.67743
3.58716
3.4164
3.23019
3.01743
3.20099
4.19554
5.7144
6.45192
6.35513
6.0013
5.59244
5.1941
4.83248
4.51662
4.24115
3.9958
3.76862
3.55258
3.34876
3.16116
2.97899
2.81595
2.66699
2.51943
2.36914
2.24011
2.1407
2.0511
1.96483
1.88617
1.83003
1.78898
1.80745
1.99284
2.60421
3.41957
3.83737
3.92898
3.88071
3.75371
3.63369
3.51582
3.39547
3.2423
3.08508
3.01898
2.95684
2.90574
2.8786
2.90898
3.08268
3.58409
4.21417
4.58252
4.58227
4.57129
4.5484
4.48677
4.39448
4.28547
4.16828
4.04622
3.93762
3.84647
3.75775
3.65771
3.5603
3.47879
3.4097
3.3471
3.2882
3.231
3.17475
3.1129
3.02797
2.94767
2.89182
2.84567
2.79672
2.76614
2.74887
2.77701
2.88004
3.11525
3.40124
3.58204
3.67011
3.76511
3.74468
3.78699
3.75896
3.72526
3.71552
3.71347
3.6985
3.62457
3.46725
3.24566
2.98577
2.76538
2.50174
2.5225
3.01306
4.24403
5.41141
5.56706
5.36078
4.98561
4.62394
4.31547
4.06149
3.83596
3.6215
3.41731
3.23316
3.07132
2.90486
2.742
2.5857
2.44207
2.30475
2.19374
2.10617
2.03847
1.96442
1.91884
1.89621
1.9834
2.42196
3.24835
4.02351
4.1534
4.12641
4.02743
3.90908
3.79721
3.69349
3.587
3.46237
3.30788
3.16079
3.05888
2.98178
2.92064
2.85838
2.80837
2.77708
2.84591
3.13525
3.65161
4.1732
4.42721
4.513
4.48202
4.39709
4.27798
4.17285
4.06999
3.95369
3.81981
3.70186
3.60226
3.52195
3.45743
3.4
3.34708
3.2995
3.25593
3.20351
3.1179
2.99472
2.89614
2.84427
2.8039
2.79795
2.8092
2.92038
3.16094
3.44931
3.71513
3.80636
3.75102
3.7272
3.725
3.68827
3.75415
3.73091
3.71363
3.69786
3.68252
3.62836
3.48779
3.25238
2.97661
2.75754
2.52883
2.2692
2.07268
1.99931
2.23054
3.14553
4.30513
4.7713
4.67041
4.39094
4.09802
3.84912
3.64244
3.46116
3.28401
3.12054
2.96819
2.80821
2.64182
2.49772
2.38225
2.28709
2.20853
2.13373
2.07735
2.00748
2.02173
2.27931
3.03986
3.94965
4.48928
4.53594
4.4519
4.26265
4.0992
3.9713
3.84978
3.72831
3.61071
3.48958
3.35734
3.21834
3.10606
3.01936
2.94563
2.86931
2.79946
2.73737
2.69417
2.7015
2.8212
3.2158
3.73174
4.10033
4.23417
4.30104
4.28559
4.20416
4.1005
3.96664
3.79937
3.6483
3.55649
3.4961
3.44859
3.40267
3.35544
3.31313
3.27212
3.2141
3.10986
2.95482
2.8556
2.82606
2.82549
2.85966
3.0468
3.42059
3.81419
4.02155
4.06874
4.00737
3.81997
3.7213
3.69493
3.6398
3.70469
3.70574
3.70598
3.68562
3.64349
3.51524
3.26596
2.96938
2.75276
2.49946
2.19352
1.98894
1.89522
1.7751
1.59596
1.69049
2.26723
3.33323
4.1296
4.1314
3.96542
3.71649
3.4849
3.29384
3.11745
2.97889
2.85996
2.74529
2.61354
2.50084
2.39965
2.3065
2.22837
2.17545
2.13726
2.24488
2.81049
3.86734
4.68682
4.82361
4.7777
4.62938
4.44343
4.25865
4.13187
4.01494
3.8888
3.76081
3.63044
3.50224
3.38706
3.27471
3.16932
3.07104
2.9837
2.9023
2.82302
2.75092
2.67458
2.64212
2.5887
2.61112
2.80767
3.26419
3.73777
4.07693
4.23124
4.21701
4.1426
3.99969
3.82354
3.63901
3.52192
3.47284
3.43601
3.40268
3.36386
3.32578
3.27649
3.19944
3.0817
2.92824
2.8625
2.86189
2.93165
3.18452
3.61116
4.03267
4.19358
4.20161
4.16187
4.01613
3.8326
3.72896
3.69029
3.62549
3.72639
3.73497
3.71849
3.68412
3.54541
3.28075
2.97827
2.71106
2.43441
2.08505
1.91422
1.84004
1.69846
1.47387
1.31048
1.26893
1.33124
1.71354
2.67122
3.52504
3.70915
3.59807
3.3825
3.19533
3.03725
2.92465
2.83838
2.74964
2.6465
2.54724
2.44351
2.3479
2.28019
2.30471
2.62247
3.56421
4.72248
5.34121
5.27579
5.08926
4.81881
4.61873
4.43815
4.27832
4.16264
4.06052
3.94939
3.82398
3.68187
3.52618
3.39404
3.2994
3.2178
3.12578
3.01551
2.93148
2.88423
2.83166
2.74739
2.64333
2.56266
2.46944
2.43219
2.53255
2.88379
3.38231
3.8554
4.03941
4.04819
4.01605
3.87408
3.65688
3.51002
3.46023
3.42204
3.38792
3.34702
3.29979
3.24589
3.1751
3.07598
2.94262
2.94182
3.05808
3.36883
3.76956
4.14941
4.32231
4.33327
4.30211
4.18525
4.01132
3.86024
3.76265
3.7031
3.62543
3.74751
3.73877
3.70445
3.56188
3.29417
2.97958
2.64408
2.30266
2.03373
1.85882
1.71078
1.57077
1.33856
1.1828
1.18165
1.17013
1.1173
1.13271
1.39653
2.20016
3.06753
3.41464
3.35948
3.21709
3.05657
2.93868
2.86706
2.79361
2.72608
2.64021
2.53742
2.4603
2.56978
3.22964
4.47728
5.51021
5.67079
5.59635
5.35523
5.04398
4.8087
4.63466
4.47986
4.3569
4.24685
4.136
4.02891
3.88459
3.69809
3.52839
3.406
3.31632
3.23561
3.15548
3.06981
2.98165
2.89445
2.81609
2.7387
2.65423
2.5592
2.45792
2.36856
2.33497
2.37982
2.60783
3.08202
3.58293
3.87946
3.92172
3.87971
3.70127
3.51688
3.44106
3.3909
3.35679
3.32545
3.28016
3.22951
3.18547
3.12081
3.14376
3.3298
3.68242
4.0236
4.24524
4.35332
4.33817
4.29374
4.2295
4.12347
3.99401
3.89021
3.8157
3.74317
3.63675
3.73619
3.70619
3.57177
3.29549
2.97778
2.57942
2.15995
1.9542
1.77742
1.56906
1.41498
1.26561
1.11007
1.06004
1.04973
1.02346
0.973501
0.946984
0.966256
1.17323
1.86658
2.83128
3.31275
3.27812
3.1774
3.06001
2.98514
2.90298
2.84613
2.76174
2.77339
3.09629
4.16578
5.47358
6.15174
6.1062
5.92338
5.58932
5.28756
5.02913
4.84757
4.7036
4.57498
4.48198
4.39166
4.24523
4.05245
3.85402
3.69489
3.57045
3.46132
3.36121
3.26533
3.16763
3.07236
3.00157
2.92699
2.83705
2.75417
2.68384
2.60069
2.50612
2.39656
2.30563
2.28293
2.29325
2.44207
2.81122
3.27813
3.63046
3.71228
3.66651
3.55582
3.45004
3.37424
3.32029
3.27352
3.26256
3.24756
3.29464
3.44492
3.73067
4.11891
4.38311
4.51487
4.4968
4.40644
4.28504
4.18941
4.12693
4.05166
3.95846
3.89576
3.84843
3.79491
3.6742
3.7138
3.59926
3.29223
2.93507
2.5336
2.04912
1.80384
1.65891
1.41139
1.2665
1.21009
1.098
1.00184
1.0053
1.001
0.974197
0.951724
0.93693
0.938561
0.952127
1.10838
1.72021
2.86217
3.24657
3.27054
3.24415
3.17873
3.06723
2.97448
3.072
3.71809
5.2659
6.51917
6.56674
6.42605
6.09601
5.79674
5.53229
5.28953
5.11515
4.99542
4.87624
4.74386
4.57584
4.35817
4.15635
3.98043
3.82018
3.68986
3.59867
3.52066
3.44252
3.35373
3.2489
3.13262
3.00916
2.89584
2.80872
2.73669
2.66347
2.58594
2.51003
2.42742
2.3436
2.27332
2.23687
2.25309
2.33161
2.54707
2.94198
3.29965
3.4699
3.50055
3.46641
3.37649
3.30737
3.28577
3.30815
3.43782
3.73056
4.1001
4.44359
4.64377
4.65578
4.62968
4.54504
4.40893
4.27642
4.15148
4.0716
4.02284
3.98948
3.95907
3.91515
3.84857
3.70761
3.65238
3.3273
2.86088
2.4287
1.95335
1.6029
1.44373
1.27308
1.07967
1.03026
0.986729
0.92395
0.919494
0.943773
0.952522
0.946683
0.945139
0.957694
0.977385
0.997761
1.0234
1.14157
1.75758
2.74892
3.29175
3.30359
3.28933
3.30107
3.52429
4.5369
6.20117
7.21778
7.25828
6.96453
6.3812
5.98835
5.76437
5.58409
5.40019
5.2354
5.06074
4.86459
4.67889
4.49581
4.31169
4.12964
3.96498
3.82512
3.73204
3.65279
3.56077
3.45523
3.3412
3.22796
3.11653
2.99958
2.89166
2.80702
2.73773
2.67227
2.60706
2.5372
2.46552
2.40221
2.33335
2.25548
2.19428
2.15974
2.17191
2.2689
2.57309
2.94659
3.28057
3.34937
3.36009
3.36909
3.45531
3.64728
3.97973
4.41833
4.68805
4.8539
4.86296
4.818
4.70301
4.54663
4.40844
4.28396
4.15014
4.0535
3.99891
3.9586
3.92699
3.88697
3.83436
3.72088
3.37757
2.75673
2.24575
1.75797
1.37239
1.27115
1.17938
1.03857
0.975905
0.950777
0.917871
0.902981
0.918739
0.956289
0.971192
0.972833
0.978136
0.996995
1.01875
1.03967
1.03865
1.04233
1.11784
1.65517
2.60631
3.05895
3.58657
4.28351
5.55318
6.76454
7.58921
7.47231
7.0989
6.69148
6.33041
6.06213
5.88849
5.73969
5.58729
5.41739
5.20566
4.95226
4.67372
4.42576
4.26265
4.15174
4.0445
3.95138
3.86813
3.77038
3.65458
3.5267
3.39732
3.27131
3.14775
3.02965
2.92929
2.85048
2.78675
2.73016
2.67718
2.62446
2.57042
2.50715
2.42281
2.30551
2.18893
2.11255
2.07001
2.07666
2.14147
2.36109
2.74736
3.1458
3.3855
3.69741
4.11366
4.3516
4.58339
4.76547
4.88927
4.91297
4.85818
4.75504
4.63062
4.51132
4.40604
4.29664
4.16571
4.07195
4.01897
3.97563
3.93461
3.89484
3.85842
3.76242
2.66682
1.73008
1.14518
0.75367
0.673161
0.71498
0.72284
0.714629
0.749689
0.81567
0.868324
0.917337
0.993451
1.04698
1.04771
1.03276
1.02861
1.04259
1.06692
1.08416
1.08162
1.07016
1.05491
1.11979
1.52893