/*--------------------------------*- C++ -*----------------------------------*\
  =========                 |
  \\      /  F ield         | OpenFOAM: The Open Source CFD Toolbox
   \\    /   O peration     | Website:  https://openfoam.org
    \\  /    A nd           | Version:  7
     \\/     M anipulation  |
\*---------------------------------------------------------------------------*/
FoamFile
{
    version     2.0;
    format      ascii;
    class       volScalarField;
    location    "2.8";
    object      rho;
}
// * * * * * * * * * * * * * * * * * * * * * * * * * * * * * * * * * * * * * //

dimensions      [1 -3 0 0 0 0 0];

internalField   nonuniform List<scalar> 
4608
(
1.40001
1.40001
1.40001
1.40001
1.40001
1.40001
1.40001
1.40001
1.40001
1.40001
1.40001
1.40001
1.40001
1.40001
1.40001
1.40001
1.40001
1.40001
1.40001
1.40001
1.40001
1.40001
1.40001
1.40001
1.40001
1.40001
1.40001
1.40001
1.40001
1.40001
1.40001
1.40001
1.40001
1.40001
1.40001
1.40001
1.40001
1.40001
1.40001
1.40001
1.40001
1.40001
1.40001
1.40001
1.40001
1.40001
1.40001
1.40001
1.40001
1.40001
1.40001
1.40001
1.40001
1.40001
1.40001
1.40001
1.40001
1.40001
1.40001
1.40001
1.40001
1.40001
1.40001
1.40001
1.40001
1.40001
1.40001
1.40001
1.40001
1.40001
1.40001
1.40001
1.40001
1.40001
1.40001
1.40001
1.40001
1.40001
1.40001
1.40001
1.40001
1.40001
1.40001
1.40001
1.40001
1.40001
1.40001
1.40001
1.40001
1.40001
1.40001
1.40001
1.40001
1.40001
1.40001
1.40001
1.40001
1.40001
1.40001
1.40001
1.40001
1.40001
1.40001
1.40001
1.40001
1.40001
1.40001
1.40001
1.40001
1.40001
1.40001
1.40001
1.40001
1.40001
1.40001
1.40001
1.40001
1.40001
1.40001
1.40001
1.40001
1.40001
1.40001
1.40001
1.40001
1.40001
1.40001
1.40001
1.40001
1.40001
1.40001
1.40001
1.40001
1.40001
1.40001
1.40001
1.40001
1.40001
1.40001
1.40001
1.40001
1.40001
1.40001
1.40001
1.40001
1.40001
1.40001
1.40001
1.40001
1.40001
1.40001
1.40001
1.40001
1.40001
1.40001
1.40001
1.40001
1.40001
1.40001
1.40001
1.40001
1.40001
1.40001
1.40001
1.40001
1.40001
1.40001
1.40001
1.40001
1.40001
1.40001
1.40001
1.40001
1.40001
1.40001
1.40001
1.40001
1.40001
1.40001
1.40001
1.40001
1.40001
1.40001
1.40001
1.40001
1.40001
1.40001
1.40001
1.40001
1.40001
1.40001
1.40001
1.40001
1.40001
1.40001
1.40001
1.40001
1.40001
1.40001
1.40001
1.40001
1.40001
1.40001
1.40001
1.40001
1.40001
1.40001
1.40001
1.40001
1.40001
1.40001
1.40001
1.40001
1.40001
1.40001
1.40001
1.40001
1.40001
1.40001
1.40001
1.40001
1.40001
1.40001
1.40001
1.40001
1.40001
1.40001
1.40001
1.40001
1.40001
1.40001
1.40001
1.40001
1.40001
1.40001
1.40001
1.40001
1.40001
1.40001
1.40001
1.40001
1.40001
1.40001
1.40001
1.40001
1.40001
1.40001
1.40001
1.40001
1.40001
1.40001
1.40001
1.40001
1.40001
1.40001
1.40001
1.40001
1.40001
1.40001
1.40001
1.40001
1.40001
1.40001
1.40001
1.40001
1.40001
1.40001
1.40001
1.40001
1.40001
1.40001
1.40001
1.40001
1.40001
1.40001
1.40001
1.40001
1.40001
1.40001
1.40001
1.40001
1.40001
1.40001
1.40001
1.40001
1.40001
1.40001
1.40001
1.40001
1.40001
1.40001
1.40001
1.40001
1.40001
1.40001
1.40001
1.40001
1.40001
1.40001
1.40001
1.40001
1.40001
1.40001
1.40001
1.40001
1.40001
1.40001
1.40001
1.40001
1.40001
1.40001
1.40001
1.40001
1.40001
1.40001
1.40001
1.40001
1.40001
1.40001
1.40001
1.40001
1.40001
1.40001
1.40001
1.40001
1.40001
1.40001
1.40001
1.40001
1.40001
1.40001
1.40001
1.40001
1.40001
1.40001
1.40001
1.40001
1.40001
1.40001
1.40001
1.40001
1.40001
1.40001
1.40001
1.40001
1.40001
1.40001
1.40001
1.40001
1.40001
1.40001
1.40001
1.40001
1.40001
1.40001
1.40001
1.40001
1.40001
1.40001
1.40001
1.40001
1.40001
1.40001
1.40001
1.40001
1.40001
1.40001
1.40001
1.40001
1.40001
1.40001
1.40001
1.40001
1.40001
1.40001
1.40001
1.40001
1.40001
1.40001
1.40001
1.40001
1.40001
1.40001
1.40001
1.40001
1.40001
1.40001
1.40001
1.40001
1.40001
1.40001
1.40001
1.40001
1.40001
1.40001
1.40001
1.40001
1.40001
1.40001
1.40001
1.40001
1.40001
1.40001
1.40001
1.40001
1.40001
1.40001
1.40001
1.40001
1.40001
1.40001
1.40001
1.40001
1.40001
1.40001
1.40001
1.40001
1.40001
1.40001
1.40001
1.40001
1.40001
1.40001
1.40001
1.40001
1.40001
1.40001
1.40001
1.40001
1.40001
1.40001
1.40001
1.40001
1.40001
1.40001
1.40001
1.40001
1.40001
1.40001
1.40001
1.40001
1.40001
1.40001
1.40001
1.40001
1.40001
1.40001
1.40001
1.40001
1.40001
1.40001
1.40001
1.40001
1.40001
1.40001
1.40001
1.40001
1.40001
1.40001
1.40001
1.40001
1.40001
1.40001
1.40001
1.40001
1.40001
1.40001
1.40001
1.40001
1.40001
1.40001
1.40001
1.40001
1.40001
1.40001
1.40001
1.40001
1.40001
1.40001
1.40001
1.40001
1.40001
1.40001
1.40001
1.40001
1.40001
1.40001
1.40001
1.40001
1.40001
1.40001
1.40001
1.40001
1.40001
1.40001
1.40001
1.40001
1.40001
1.40001
1.40001
1.40001
1.40001
1.40001
1.40001
1.40001
1.40001
1.40001
1.40001
1.40001
1.40001
1.40001
1.40001
1.40001
1.40001
1.40001
1.40001
1.40001
1.40001
1.40001
1.40001
1.40001
1.40001
1.40001
1.40001
1.40001
1.40001
1.40001
1.40001
1.40001
1.40001
1.40001
1.40001
1.40001
1.40001
1.40001
1.40001
1.40001
1.40001
1.40001
1.40001
1.40001
1.40001
1.40001
1.40001
1.40001
1.40001
1.40001
1.40001
1.40001
1.40001
1.40001
1.40001
1.40001
1.40001
1.40001
1.40001
1.40001
1.40001
1.40001
1.40001
1.40001
1.40001
1.40001
1.40001
1.40001
1.40001
1.40001
1.40001
1.40001
1.40001
1.40001
1.40001
1.40001
1.40001
1.40001
1.40001
1.40001
1.40001
1.40001
1.40001
1.40001
1.40001
1.40001
1.40001
1.40001
1.40001
1.40001
1.40001
1.40001
1.40001
1.40001
1.40001
1.40001
1.40001
1.40001
1.40001
1.40001
1.40001
1.40001
1.40001
1.40001
1.40001
1.40001
1.40001
1.40001
1.40001
1.40001
1.40001
1.40001
1.40001
1.40001
1.40001
1.40001
1.40001
1.40001
1.40001
1.40001
1.40001
1.40001
1.40001
1.40001
1.40001
1.40001
1.40001
1.40001
1.40001
1.40001
1.40001
1.40001
1.40001
1.40001
1.40001
1.40001
1.40001
1.40001
1.40001
1.40001
1.40001
1.40001
1.40001
1.40001
1.40001
1.40001
1.40001
1.40001
1.40001
1.40001
1.40001
1.40001
1.40001
1.40001
1.40001
1.40001
1.40001
1.40001
1.40001
1.40001
1.40001
1.40001
1.40001
1.40001
1.40001
1.40001
1.40001
1.40001
1.40001
1.40001
1.40001
1.40001
1.40001
1.40001
1.40001
1.40001
1.40001
1.40001
1.40001
1.40001
1.40001
1.40001
1.40001
1.40001
1.40001
1.40001
1.40001
1.40001
1.40001
1.40001
1.40001
1.40001
1.40001
1.40001
1.40001
1.40001
1.40001
1.40001
1.40001
1.40001
1.40001
1.40001
1.40001
1.40001
1.40001
1.40001
1.40001
1.40001
1.40001
1.40001
1.40001
1.40001
1.40001
1.40001
1.40001
1.40001
1.40001
1.40001
1.40001
1.40001
1.40001
1.40001
1.40001
1.40001
1.40001
1.40001
1.40001
1.40001
1.40001
1.40001
1.40001
1.40001
1.40001
1.40001
1.40001
1.40001
1.40001
1.40001
1.40001
1.40001
1.40001
1.40001
1.40001
1.40001
1.40001
1.40001
1.40001
1.40001
1.40001
1.40001
1.40001
1.40001
1.40001
1.40001
1.40001
1.40001
1.40001
1.40001
1.40001
1.40001
1.40001
1.40001
1.40001
1.40001
1.40001
1.40001
1.40001
1.40001
1.40001
1.40001
1.40001
1.67701
2.09294
2.52595
2.99675
3.43161
3.81481
4.13951
4.40989
4.42763
4.30391
4.03748
3.71831
3.47329
3.36501
3.29806
3.30636
3.33551
3.36629
3.3905
3.4001
3.4049
3.41126
3.42751
3.4376
1.40214
1.41694
1.47963
1.58649
1.80342
2.10647
2.51907
2.95873
3.38388
3.5443
3.6503
3.60619
3.56271
3.48865
3.40788
3.39513
3.37969
3.36977
3.37872
3.38635
3.39302
3.40209
3.41511
3.42742
1.4
1.39995
1.40023
1.40019
1.40333
1.42149
1.49633
1.70986
2.18411
2.8979
3.42472
3.71223
3.76278
3.71992
3.61169
3.45412
3.34101
3.33645
3.35128
3.35934
3.36541
3.37233
3.3809
3.39489
1.40001
1.4
1.4
1.4
1.39999
1.40004
1.39992
1.40177
1.42706
1.64878
2.16677
2.97237
3.39663
3.57577
3.55357
3.50107
3.39603
3.35378
3.35091
3.32926
3.32592
3.33371
3.34503
3.35918
1.40001
1.40001
1.4
1.4
1.4
1.4
1.39999
1.4
1.39991
1.40155
1.43429
1.6859
2.30443
3.00307
3.47451
3.53158
3.4916
3.44039
3.37376
3.31399
3.3003
3.30974
3.32366
3.33616
1.40001
1.40001
1.40001
1.40001
1.40001
1.4
1.4
1.4
1.4
1.4
1.39993
1.40255
1.47139
1.78252
2.50876
3.13995
3.4585
3.45592
3.42142
3.36683
3.31767
3.31373
3.30915
3.31104
1.40001
1.40001
1.40001
1.40001
1.40001
1.40001
1.40001
1.40001
1.40001
1.4
1.4
1.39998
1.40007
1.40739
1.54671
2.01669
2.80309
3.19782
3.39254
3.40112
3.37061
3.3086
3.29476
3.28607
1.40001
1.40001
1.40001
1.40001
1.40001
1.40001
1.40001
1.40001
1.40001
1.40001
1.4
1.4
1.4
1.39998
1.40141
1.4288
1.7024
2.3235
3.09048
3.31681
3.33449
3.31482
3.30319
3.2912
1.40001
1.40001
1.40001
1.40001
1.40001
1.40001
1.40001
1.40001
1.40001
1.40001
1.40001
1.40001
1.4
1.4
1.4
1.39999
1.40826
1.50699
1.99014
2.71354
3.2394
3.36298
3.35402
3.34142
1.40001
1.40001
1.40001
1.40001
1.40001
1.40001
1.40001
1.40001
1.40001
1.40001
1.40001
1.40001
1.40001
1.4
1.4
1.4
1.39998
1.40099
1.43962
1.7376
2.48083
3.01694
3.25064
3.34575
1.40001
1.40001
1.40001
1.40001
1.40001
1.40001
1.40001
1.40001
1.40001
1.40001
1.40001
1.40001
1.40001
1.40001
1.40001
1.4
1.4
1.4
1.4002
1.4145
1.57916
2.19376
2.94946
3.29814
1.40001
1.40001
1.40001
1.40001
1.40001
1.40001
1.40001
1.40001
1.40001
1.40001
1.40001
1.40001
1.40001
1.40001
1.40001
1.40001
1.4
1.4
1.4
1.40003
1.40467
1.51555
2.00958
2.74531
1.40001
1.40001
1.40001
1.40001
1.40001
1.40001
1.40001
1.40001
1.40001
1.40001
1.40001
1.40001
1.40001
1.40001
1.40001
1.40001
1.40001
1.40001
1.4
1.4
1.40001
1.40276
1.45778
1.83728
1.40001
1.40001
1.40001
1.40001
1.40001
1.40001
1.40001
1.40001
1.40001
1.40001
1.40001
1.40001
1.40001
1.40001
1.40001
1.40001
1.40001
1.40001
1.40001
1.4
1.4
1.4
1.40087
1.42935
1.40001
1.40001
1.40001
1.40001
1.40001
1.40001
1.40001
1.40001
1.40001
1.40001
1.40001
1.40001
1.40001
1.40001
1.40001
1.40001
1.40001
1.40001
1.40001
1.40001
1.4
1.4
1.4
1.40008
1.40001
1.40001
1.40001
1.40001
1.40001
1.40001
1.40001
1.40001
1.40001
1.40001
1.40001
1.40001
1.40001
1.40001
1.40001
1.40001
1.40001
1.40001
1.40001
1.40001
1.40001
1.40001
1.4
1.4
1.40001
1.40001
1.40001
1.40001
1.40001
1.40001
1.40001
1.40001
1.40001
1.40001
1.40001
1.40001
1.40001
1.40001
1.40001
1.40001
1.40001
1.40001
1.40001
1.40001
1.40001
1.4
1.4
1.4
1.40001
1.40001
1.40001
1.40001
1.40001
1.40001
1.40001
1.40001
1.40001
1.40001
1.40001
1.40001
1.40001
1.40001
1.40001
1.40001
1.40001
1.40001
1.40001
1.40001
1.4
1.4
1.40001
1.40005
1.40001
1.40001
1.40001
1.40001
1.40001
1.40001
1.40001
1.40001
1.40001
1.40001
1.40001
1.40001
1.40001
1.40001
1.40001
1.40001
1.40001
1.40001
1.4
1.4
1.4
1.4
1.40114
1.42413
1.40001
1.40001
1.40001
1.40001
1.40001
1.40001
1.40001
1.40001
1.40001
1.40001
1.40001
1.40001
1.40001
1.40001
1.40001
1.40001
1.40001
1.40001
1.4
1.4
1.40001
1.40231
1.4594
1.81695
1.40001
1.40001
1.40001
1.40001
1.40001
1.40001
1.40001
1.40001
1.40001
1.40001
1.40001
1.40001
1.40001
1.40001
1.40001
1.40001
1.4
1.4
1.4
1.40003
1.40494
1.51079
1.97169
2.80504
1.40001
1.40001
1.40001
1.40001
1.40001
1.40001
1.40001
1.40001
1.40001
1.40001
1.40001
1.40001
1.40001
1.40001
1.40001
1.4
1.4
1.4
1.40023
1.41387
1.5831
2.18252
2.92858
3.31542
1.40001
1.40001
1.40001
1.40001
1.40001
1.40001
1.40001
1.40001
1.40001
1.40001
1.40001
1.40001
1.40001
1.4
1.4
1.4
1.39998
1.40098
1.43971
1.73762
2.47747
3.0049
3.26511
3.35214
1.40001
1.40001
1.40001
1.40001
1.40001
1.40001
1.40001
1.40001
1.40001
1.40001
1.40001
1.40001
1.4
1.4
1.4
1.39999
1.40826
1.50716
1.98568
2.72373
3.22951
3.36
3.35586
3.34285
1.40001
1.40001
1.40001
1.40001
1.40001
1.40001
1.40001
1.40001
1.40001
1.40001
1.4
1.4
1.4
1.39998
1.40142
1.42877
1.70315
2.32238
3.08776
3.32238
3.33243
3.31335
3.30231
3.29334
1.40001
1.40001
1.40001
1.40001
1.40001
1.40001
1.40001
1.40001
1.40001
1.4
1.4
1.39998
1.40007
1.40739
1.5466
2.01712
2.80312
3.19606
3.39364
3.4024
3.37139
3.30646
3.29457
3.28729
1.40001
1.40001
1.40001
1.40001
1.40001
1.4
1.4
1.4
1.4
1.4
1.39993
1.40255
1.47142
1.78248
2.50833
3.14066
3.4582
3.45562
3.42126
3.36781
3.31731
3.31267
3.30969
3.31097
1.40001
1.40001
1.4
1.4
1.4
1.4
1.39999
1.4
1.39991
1.40155
1.43429
1.68587
2.30466
3.00256
3.47467
3.53184
3.49169
3.4401
3.37358
3.31496
3.29984
3.30914
3.32417
3.33633
1.40001
1.4
1.4
1.4
1.39999
1.40004
1.39992
1.40177
1.42706
1.64881
2.16666
2.9727
3.39644
3.57556
3.55359
3.50113
3.39645
3.35307
3.35098
3.33002
3.32581
3.33352
3.34513
3.35925
1.4
1.39995
1.40023
1.40019
1.40332
1.42149
1.49634
1.70986
2.18412
2.89795
3.42463
3.71224
3.76274
3.71993
3.61167
3.4543
3.34111
3.33602
3.3513
3.35948
3.36526
3.37215
3.38099
3.39497
1.40214
1.41694
1.47963
1.58647
1.80341
2.10648
2.51909
2.9587
3.38391
3.54432
3.6503
3.60612
3.56276
3.4887
3.40785
3.39515
3.37963
3.36979
3.37874
3.38632
3.39295
3.40204
3.4152
3.42742
1.67701
2.09294
2.52592
2.99678
3.43166
3.8148
4.13948
4.40986
4.42763
4.30393
4.03753
3.71829
3.47342
3.36502
3.298
3.30632
3.33551
3.36631
3.39046
3.40003
3.40482
3.41126
3.42762
3.43756
2.66964
1.95614
1.44192
1.07406
0.969031
0.995662
0.993406
0.987139
1.02317
1.09147
1.14238
1.18971
1.26323
1.31828
1.32002
1.30709
1.30272
1.31562
1.34064
1.35792
1.35567
1.34692
1.33217
1.37635
1.71493
2.5774
3.64623
4.81124
5.78732
5.95685
5.65893
5.1905
4.85427
4.68574
4.57068
4.43552
4.28333
4.15099
4.04499
3.94834
3.85232
3.75566
3.6577
3.55948
3.46538
3.37766
3.29337
3.20534
3.11329
3.02554
2.94779
2.87996
2.82643
2.78583
2.74822
2.70466
2.64856
2.58031
2.50952
2.4465
2.39073
2.33973
2.2946
2.2535
2.21293
2.17093
2.1343
2.09803
2.06318
2.03701
2.00908
2.03566
2.13451
2.35947
2.74782
3.18913
3.54449
3.87753
4.07461
4.06845
3.99558
3.85324
3.67926
3.52261
3.44258
3.41935
3.40679
3.41023
3.3961
3.36791
3.33726
3.28306
3.16666
3.06057
3.03389
3.00887
3.16047
2.73045
2.35518
1.98648
1.67285
1.56847
1.47896
1.35338
1.29032
1.26105
1.22343
1.20295
1.21728
1.25348
1.26926
1.27073
1.27439
1.29067
1.31217
1.33089
1.33038
1.33351
1.38789
1.75424
2.46814
2.75738
3.06547
3.48722
4.17205
4.7487
5.12257
5.12385
4.95939
4.77435
4.60969
4.45056
4.29132
4.17275
4.08493
3.98969
3.88768
3.79282
3.69904
3.60474
3.51195
3.42024
3.32832
3.23634
3.14801
3.06805
2.9961
2.92969
2.86972
2.8175
2.77657
2.73279
2.67621
2.60651
2.53669
2.47948
2.43068
2.38391
2.33476
2.28578
2.2403
2.19671
2.1605
2.12623
2.08904
2.08944
2.13242
2.27241
2.47863
2.66306
2.80351
2.9923
3.19432
3.42896
3.67402
3.78609
3.79589
3.7696
3.67581
3.5442
3.46952
3.44045
3.42086
3.41434
3.40499
3.38286
3.35125
3.29488
3.18641
3.0815
3.05499
3.03089
3.33588
3.12331
2.80353
2.49723
2.14219
1.85391
1.71986
1.57715
1.39938
1.34926
1.30868
1.24689
1.24093
1.26257
1.27236
1.26603
1.2635
1.27442
1.29259
1.31172
1.33355
1.44817
1.87613
2.52972
2.93469
2.94641
2.92388
2.92701
3.04493
3.58778
4.40715
4.95755
5.00662
4.89312
4.63425
4.41396
4.2706
4.15968
4.05286
3.9371
3.82327
3.72281
3.63413
3.54636
3.45815
3.36976
3.28093
3.19728
3.12263
3.05318
2.9876
2.92269
2.85061
2.77138
2.70059
2.65463
2.61069
2.55929
2.50787
2.46295
2.41655
2.36888
2.3135
2.25129
2.19431
2.15105
2.12468
2.11364
2.1252
2.20489
2.41161
2.659
2.80847
2.87939
2.86597
2.86206
2.90096
3.03876
3.28009
3.50183
3.64694
3.70626
3.68494
3.57411
3.49022
3.44941
3.42508
3.4115
3.38727
3.35935
3.32753
3.27501
3.18889
3.08512
3.04286
3.01365
3.35307
3.28627
3.08873
2.84814
2.569
2.20704
2.01338
1.90139
1.6981
1.56516
1.51841
1.42292
1.32955
1.33011
1.3265
1.30038
1.27757
1.26153
1.26276
1.27438
1.41084
1.92141
2.5898
2.92201
2.93286
2.91451
2.8548
2.77766
2.69463
2.74255
3.09136
3.90418
4.57972
4.62227
4.57983
4.43859
4.29693
4.16327
4.03438
3.91507
3.80907
3.70595
3.60509
3.50851
3.41999
3.34085
3.26603
3.1939
3.12746
3.05981
2.99286
2.92928
2.85902
2.77727
2.68613
2.61436
2.5723
2.53793
2.50553
2.4672
2.42129
2.37137
2.31486
2.25177
2.19224
2.15523
2.1377
2.16241
2.30646
2.56962
2.85987
2.96501
2.97133
2.95453
2.90415
2.84935
2.80103
2.80018
2.86483
3.00758
3.24009
3.45765
3.55851
3.53795
3.53175
3.5077
3.47376
3.42744
3.37543
3.33497
3.30529
3.26697
3.19706
3.09708
3.04689
3.01444
3.34275
3.33088
3.25171
3.07499
2.86516
2.58893
2.28018
2.12793
1.99296
1.81995
1.68909
1.56639
1.43186
1.38215
1.37042
1.34405
1.29633
1.27
1.28685
1.4468
2.01617
2.6025
2.89228
2.91704
2.87452
2.80046
2.72966
2.66107
2.61246
2.54782
2.55567
2.73973
3.37913
4.01713
4.36809
4.38507
4.29864
4.14949
4.00715
3.90115
3.80769
3.7026
3.58956
3.47884
3.37972
3.29007
3.19989
3.11811
3.07192
3.04486
3.01332
2.9674
2.9061
2.82146
2.70751
2.59603
2.52866
2.48484
2.45365
2.43195
2.42027
2.39074
2.34564
2.28469
2.22007
2.20233
2.2614
2.45437
2.73392
2.98885
3.06804
3.05288
3.0109
2.96188
2.90824
2.84926
2.78179
2.73471
2.72092
2.73986
2.84614
3.07044
3.308
3.4576
3.51882
3.5094
3.46358
3.41157
3.36273
3.31936
3.28083
3.23464
3.17969
3.11996
3.06043
3.00426
3.32639
3.32537
3.30986
3.22513
3.05602
2.85055
2.61974
2.37783
2.18298
2.04805
1.92836
1.81675
1.62799
1.48899
1.48575
1.47382
1.42398
1.43322
1.62843
2.20721
2.78688
2.96161
2.93506
2.86206
2.78081
2.7032
2.63992
2.58618
2.53802
2.48786
2.43374
2.38541
2.45762
2.82562
3.4709
4.0006
4.09894
4.0818
3.99352
3.89622
3.79943
3.69209
3.58065
3.469
3.35847
3.25524
3.16888
3.1057
3.0505
2.99531
2.94985
2.90896
2.85937
2.79243
2.69134
2.57197
2.4991
2.46465
2.43807
2.40974
2.37687
2.34297
2.32774
2.30045
2.30682
2.40785
2.65111
2.90568
3.09334
3.15853
3.14926
3.10969
3.05706
2.9964
2.92793
2.84779
2.76417
2.71714
2.69734
2.6917
2.69942
2.7674
2.93416
3.15503
3.34035
3.396
3.39071
3.3818
3.36039
3.31733
3.26675
3.21785
3.17415
3.13204
3.07465
3.00477
3.29599
3.30555
3.29814
3.27947
3.19588
3.03027
2.83358
2.65491
2.46528
2.213
2.08149
2.02593
1.91649
1.73134
1.59165
1.55271
1.6017
1.87083
2.50178
3.0599
3.14592
3.06657
2.92938
2.81992
2.74303
2.66855
2.60543
2.55694
2.50666
2.45691
2.39332
2.3395
2.25768
2.2569
2.41353
2.95328
3.57747
3.90961
3.95522
3.89833
3.79641
3.69238
3.59194
3.48011
3.35352
3.23808
3.15401
3.08814
3.02711
2.96783
2.91954
2.87844
2.83203
2.77097
2.67609
2.56558
2.4984
2.45979
2.42332
2.39002
2.35967
2.3502
2.3601
2.43119
2.6186
2.89293
3.07426
3.15729
3.20236
3.18781
3.14587
3.10024
3.05214
2.99403
2.92212
2.83417
2.75904
2.72638
2.70372
2.68362
2.67715
2.67653
2.70705
2.80119
2.94916
3.13996
3.2613
3.32123
3.33326
3.30788
3.25875
3.21681
3.18185
3.14155
3.09493
3.01853
3.27966
3.28077
3.28106
3.27011
3.24287
3.16303
3.0084
2.81673
2.6755
2.50304
2.28242
2.12904
2.05952
1.9677
1.81987
1.88966
2.27892
2.93029
3.41251
3.41754
3.31952
3.15965
2.99635
2.87753
2.77918
2.69426
2.61677
2.55741
2.49796
2.43669
2.37877
2.31934
2.24152
2.18523
2.13284
2.18886
2.52386
3.12023
3.61986
3.73551
3.73348
3.66614
3.58096
3.48135
3.35675
3.23077
3.14231
3.07509
3.01622
2.95966
2.90817
2.85939
2.80384
2.73356
2.65121
2.56907
2.49982
2.44478
2.40466
2.38951
2.38161
2.42595
2.60084
2.87293
3.14949
3.24298
3.26797
3.27346
3.24148
3.19355
3.14328
3.09879
3.05521
3.0028
2.92838
2.82719
2.76918
2.74388
2.71631
2.69136
2.6737
2.65867
2.65407
2.64318
2.66382
2.74062
2.92576
3.09688
3.20877
3.26317
3.261
3.23083
3.20423
3.17402
3.13145
3.03727
3.31689
3.29732
3.28614
3.27834
3.26934
3.23263
3.14395
2.99664
2.81891
2.6724
2.51334
2.32672
2.18571
2.1246
2.2801
2.87426
3.54039
3.78842
3.73536
3.57899
3.40918
3.25092
3.10945
2.98858
2.87699
2.77714
2.68468
2.59926
2.51304
2.42671
2.36306
2.30876
2.24551
2.17044
2.11419
2.05563
2.05667
2.20955
2.68946
3.25248
3.57121
3.59727
3.55421
3.46386
3.35122
3.22381
3.12998
3.06209
3.00619
2.95096
2.89879
2.84109
2.77139
2.69149
2.62096
2.56223
2.50135
2.44853
2.42042
2.43017
2.54345
2.81183
3.14369
3.37876
3.40246
3.35837
3.31261
3.2672
3.22794
3.18903
3.15119
3.10979
3.06713
3.01685
2.93813
2.83456
2.78462
2.75938
2.7327
2.70632
2.68335
2.66362
2.64505
2.62558
2.58237
2.5533
2.60194
2.7578
2.97298
3.1409
3.23814
3.24561
3.22104
3.18984
3.15265
3.0532
3.34276
3.32157
3.30104
3.29537
3.29318
3.27915
3.23257
3.13703
2.99746
2.8236
2.67024
2.48445
2.4962
2.79394
3.50722
4.1528
4.23414
4.11831
3.91952
3.72919
3.55766
3.40034
3.25238
3.10919
2.9727
2.84927
2.74456
2.65187
2.56481
2.47908
2.40424
2.32769
2.24713
2.16341
2.10117
2.03991
1.99814
1.9623
2.01778
2.31942
2.85097
3.29156
3.42766
3.40723
3.31417
3.2091
3.12201
3.04652
2.98189
2.91954
2.86639
2.80499
2.73516
2.66695
2.60846
2.55373
2.51376
2.47515
2.50922
2.7087
3.06991
3.37654
3.55937
3.58311
3.54385
3.43347
3.31581
3.25867
3.22028
3.18749
3.15753
3.12377
3.08293
3.03167
2.95522
2.86016
2.80574
2.7765
2.74909
2.72229
2.69734
2.67479
2.65004
2.62244
2.57918
2.52181
2.49636
2.52658
2.65829
2.8669
3.08622
3.18979
3.19009
3.17629
3.14757
3.05727
3.29489
3.27469
3.28155
3.29434
3.29468
3.29589
3.2759
3.22239
3.11273
2.98491
2.83201
2.93958
3.51258
4.31707
4.6788
4.64763
4.47276
4.26195
4.0642
3.88284
3.71402
3.55369
3.39781
3.24306
3.09203
2.94583
2.81092
2.68881
2.58565
2.50841
2.44489
2.36945
2.28533
2.20547
2.12941
2.05656
1.98224
1.93506
1.89124
1.89684
2.03801
2.43056
2.92855
3.23441
3.266
3.23598
3.14082
3.05286
2.97927
2.90047
2.82446
2.75793
2.70017
2.64353
2.60321
2.56645
2.57224
2.66326
2.94341
3.3599
3.58449
3.63316
3.62975
3.60099
3.53981
3.45639
3.36371
3.29028
3.23757
3.19183
3.15896
3.13077
3.09572
3.04755
2.97778
2.89606
2.83654
2.79921
2.76864
2.74109
2.71502
2.68931
2.65893
2.6191
2.56948
2.52692
2.49
2.4693
2.4832
2.58032
2.7681
2.98521
3.10479
3.13521
3.12802
3.0577
3.14307
3.35158
3.37464
3.36291
3.32348
3.2912
3.28464
3.26713
3.19066
3.18994
3.51641
4.36945
5.11484
5.33677
5.22915
4.93676
4.65288
4.40987
4.20013
4.01261
3.8414
3.67936
3.51937
3.35741
3.19569
3.03745
2.89204
2.76954
2.66716
2.57048
2.46982
2.36979
2.2875
2.23205
2.16983
2.09744
2.01796
1.94859
1.88293
1.83752
1.80734
1.85497
2.10442
2.59329
2.97462
3.11363
3.10897
3.07559
3.00019
2.90524
2.80563
2.73486
2.69192
2.65656
2.64374
2.70171
2.92229
3.27299
3.61604
3.79787
3.80107
3.74696
3.66338
3.58411
3.51838
3.46503
3.40388
3.33247
3.26951
3.21646
3.17415
3.1373
3.09423
3.04047
2.98008
2.92238
2.87244
2.83034
2.79454
2.76338
2.73262
2.70068
2.66537
2.62132
2.57194
2.53165
2.50034
2.46988
2.44443
2.44747
2.5006
2.63882
2.8363
2.97046
3.04495
3.03032
2.54038
3.16519
3.33426
3.32599
3.31534
3.3032
3.29296
3.3046
3.47254
4.1871
5.32264
5.7926
5.73649
5.61344
5.38799
5.11938
4.83557
4.55921
4.31255
4.10473
3.93323
3.77917
3.62286
3.45681
3.2829
3.11172
2.95761
2.82588
2.71101
2.61323
2.52469
2.43721
2.34834
2.25842
2.16873
2.0927
2.04272
1.98966
1.92587
1.84858
1.78414
1.75069
1.75762
1.89135
2.26426
2.68365
2.95081
2.98095
2.95128
2.88642
2.78495
2.71875
2.70284
2.7435
2.91558
3.27315
3.65712
3.86801
3.87512
3.83623
3.79524
3.75833
3.70432
3.62153
3.54198
3.48528
3.43177
3.37236
3.31312
3.25413
3.19566
3.14375
3.09231
3.03549
2.98202
2.93782
2.89742
2.85718
2.8173
2.78119
2.74741
2.70984
2.6645
2.6156
2.58183
2.5537
2.52389
2.48484
2.43858
2.41223
2.40855
2.43246
2.51489
2.65886
2.82782
2.94241
1.71175
2.42706
2.99139
3.22301
3.34211
3.35662
3.45072
3.89801
4.88811
5.99537
6.52875
6.46457
6.11147
5.7476
5.48272
5.23139
4.96662
4.69651
4.4369
4.19837
3.99314
3.82913
3.68058
3.51981
3.34852
3.18017
3.02816
2.89835
2.77616
2.64898
2.52936
2.44176
2.37571
2.30164
2.22079
2.143
2.05633
1.96185
1.88579
1.82754
1.77501
1.7362
1.70396
1.69444
1.7598
1.98331
2.39322
2.71136
2.83857
2.82653
2.77687
2.77307
2.90339
3.21884
3.62994
3.99235
4.16298
4.13736
4.01114
3.86066
3.77213
3.73459
3.68775
3.62467
3.5541
3.48875
3.43298
3.38713
3.34173
3.28723
3.22181
3.15661
3.09557
3.03767
2.98889
2.94846
2.91064
2.87323
2.83324
2.78821
2.74602
2.70775
2.66672
2.6267
2.59585
2.56855
2.54054
2.50574
2.45855
2.41418
2.37862
2.35513
2.35926
2.39936
2.50393
2.74518
1.42281
1.61735
2.22996
2.85429
3.36687
3.65599
4.46943
5.51266
6.23947
6.61079
6.6222
6.52973
6.31019
5.97334
5.63857
5.32323
5.03642
4.78524
4.55342
4.32401
4.08937
3.8737
3.68324
3.51275
3.35646
3.21692
3.08767
2.9678
2.83899
2.69788
2.57798
2.47478
2.37705
2.28747
2.20109
2.12753
2.05826
1.98188
1.90203
1.83575
1.78386
1.74262
1.69857
1.65908
1.61791
1.62642
1.74278
2.05475
2.43497
2.74789
2.88805
3.16247
3.62593
3.98519
4.16862
4.22295
4.20341
4.14898
4.01741
3.89301
3.80528
3.73803
3.68009
3.61522
3.55827
3.522
3.48123
3.42736
3.36861
3.30473
3.23877
3.16813
3.0949
3.03555
2.99804
2.9703
2.94397
2.9118
2.86589
2.80838
2.75403
2.71184
2.67795
2.64664
2.61546
2.58662
2.55481
2.52089
2.4897
2.43853
2.37319
2.32625
2.30534
2.30661
2.32735
2.50283
1.40035
1.41423
1.55678
2.12109
3.48924
4.56466
5.79525
6.55051
6.95872
6.89898
6.70043
6.50881
6.3652
6.09839
5.72947
5.36958
5.06639
4.80835
4.57818
4.39781
4.22478
3.99861
3.76288
3.56249
3.37991
3.22623
3.08994
2.95232
2.83887
2.76307
2.67223
2.55381
2.42441
2.32165
2.23667
2.15618
2.06932
1.98475
1.93159
1.88488
1.83973
1.79025
1.72514
1.65696
1.60008
1.56245
1.56531
1.61961
1.89169
2.58037
3.21744
3.77068
4.24086
4.47336
4.46415
4.3992
4.22895
4.06325
3.9717
3.90777
3.84548
3.76166
3.68139
3.62164
3.57995
3.52572
3.45578
3.39057
3.33451
3.2851
3.22844
3.16218
3.09604
3.04883
3.01957
2.98823
2.94693
2.8939
2.83245
2.76818
2.72075
2.68813
2.66733
2.65433
2.64125
2.62201
2.59156
2.55019
2.49076
2.42353
2.36023
2.31426
2.29007
2.27858
2.28135
2.35983
1.40061
1.41309
1.53985
2.17343
3.18742
4.75702
5.8495
6.47592
7.02452
6.88669
6.5815
6.40045
6.2679
6.03385
5.72219
5.41635
5.13752
4.88282
4.65094
4.41491
4.16715
3.9288
3.69524
3.52017
3.412
3.29165
3.15466
3.01663
2.8803
2.73607
2.59929
2.47408
2.35796
2.28321
2.25096
2.20761
2.13095
2.03067
1.91962
1.83487
1.78088
1.73903
1.68376
1.63686
1.60797
1.57734
1.57996
1.65149
1.97148
2.51575
3.29353
3.89288
4.19587
4.46489
4.49455
4.36089
4.13883
4.00434
3.95975
3.92411
3.87324
3.78766
3.70117
3.63894
3.58385
3.51377
3.4375
3.37547
3.33059
3.28597
3.22111
3.14309
3.11085
3.09462
3.06597
3.02839
2.97846
2.90567
2.82089
2.75366
2.71454
2.69365
2.67634
2.65762
2.63624
2.60996
2.57515
2.529
2.47419
2.41224
2.35265
2.31233
2.29014
2.27815
2.28164
2.34353
1.42886
1.64578
2.1699
2.91684
3.11948
3.76742
4.58268
5.51294
6.43776
6.58381
6.53669
6.41162
6.20422
5.91256
5.62366
5.34209
5.06439
4.81587
4.59346
4.36379
4.12724
3.90895
3.71133
3.52117
3.33455
3.17889
3.04494
2.9231
2.81509
2.7043
2.57931
2.43549
2.34066
2.29178
2.22048
2.13653
2.07257
2.0026
1.91843
1.84096
1.77696
1.72056
1.67421
1.6419
1.6134
1.6228
1.74209
2.06893
2.52588
2.67087
2.92833
3.31294
3.6072
4.02364
4.19954
4.15581
4.11979
4.07413
4.00985
3.91327
3.83646
3.79544
3.74649
3.6779
3.5891
3.4989
3.42491
3.36746
3.31773
3.26789
3.21536
3.16544
3.11774
3.0722
3.03636
3.0018
2.95681
2.88715
2.80385
2.76094
2.74138
2.72289
2.7012
2.67779
2.65127
2.61866
2.57821
2.52201
2.45803
2.40264
2.36551
2.32868
2.31107
2.31617
2.34687
2.524
1.76957
2.41898
2.997
3.29999
3.29695
3.33065
3.46258
3.89276
4.9036
6.02569
6.4509
6.36776
6.0516
5.72516
5.49874
5.2766
5.01949
4.74973
4.48776
4.24338
4.02291
3.82437
3.63912
3.45927
3.2865
3.13949
3.01829
2.90953
2.79709
2.66967
2.54607
2.45211
2.37173
2.28486
2.19638
2.0992
2.04579
2.01532
1.96406
1.89287
1.81355
1.7351
1.69926
1.6692
1.70503
1.94622
2.33808
2.72109
2.86901
2.83657
2.79578
2.81799
2.89673
3.17544
3.58658
3.93572
4.09049
4.09981
4.02682
3.90423
3.79622
3.75559
3.71551
3.65079
3.56576
3.48307
3.41692
3.36294
3.31309
3.26081
3.20595
3.15738
3.11029
3.06396
3.02223
2.98199
2.93552
2.87505
2.81036
2.75068
2.70859
2.6857
2.66614
2.64551
2.62272
2.59812
2.56617
2.51535
2.44536
2.37913
2.35143
2.34877
2.35606
2.41629
2.55275
2.80328
2.653
3.11205
3.30187
3.31561
3.29545
3.29326
3.31151
3.34142
3.50357
4.2516
5.36259
5.75058
5.72999
5.62203
5.42156
5.16988
4.88261
4.59623
4.33488
4.10819
3.91112
3.7317
3.56111
3.39865
3.2491
3.11295
2.98302
2.85629
2.7424
2.6444
2.54467
2.43131
2.31982
2.22088
2.14773
2.08845
2.03035
1.96869
1.9087
1.84954
1.80785
1.7525
1.75651
1.88434
2.23586
2.65816
2.93207
2.99866
2.97915
2.92977
2.82854
2.73869
2.68186
2.70194
2.86209
3.23797
3.67431
3.91774
3.91086
3.86521
3.81739
3.7642
3.68934
3.5999
3.5233
3.46438
3.41609
3.36607
3.31175
3.25976
3.21574
3.16951
3.11261
3.05233
2.99777
2.95187
2.91439
2.87927
2.83123
2.76574
2.70574
2.67168
2.65246
2.63392
2.61451
2.59081
2.55244
2.49851
2.43914
2.38281
2.373
2.39913
2.50603
2.67875
2.89116
3.02003
3.17348
3.32326
3.35243
3.34141
3.31438
3.30197
3.29122
3.26887
3.19456
3.20337
3.55491
4.37024
5.12916
5.35166
5.24391
4.95789
4.66718
4.41388
4.18956
3.98735
3.80166
3.62733
3.46535
3.31835
3.18455
3.06002
2.94206
2.8263
2.71525
2.60344
2.48314
2.36268
2.26743
2.20516
2.14583
2.0813
2.01332
1.95514
1.89776
1.85664
1.8247
1.87473
2.14197
2.5956
2.98366
3.12289
3.11764
3.07561
2.99888
2.91367
2.81441
2.71684
2.66041
2.64506
2.64114
2.70809
2.95975
3.33976
3.6728
3.81582
3.80515
3.72976
3.62042
3.54922
3.50691
3.46752
3.42214
3.36183
3.29219
3.23204
3.1877
3.14382
3.08952
3.03001
2.97636
2.92981
2.88777
2.84714
2.80639
2.76053
2.70696
2.66808
2.64412
2.6213
2.59615
2.56383
2.52421
2.48742
2.4478
2.43506
2.46748
2.59286
2.78389
2.95164
3.0769
3.08558
3.31272
3.28
3.2748
3.28066
3.28463
3.29268
3.27221
3.21379
3.1017
2.97831
2.83291
2.93758
3.50001
4.31424
4.7022
4.65743
4.47818
4.26422
4.04993
3.85028
3.67149
3.51211
3.36804
3.23349
3.1044
2.98058
2.86363
2.74666
2.63921
2.53925
2.43863
2.3348
2.24537
2.17646
2.11281
2.0491
1.98939
1.94637
1.91626
1.9296
2.05812
2.46267
2.96672
3.21466
3.25924
3.22855
3.14922
3.07261
2.99679
2.91973
2.82214
2.72144
2.67832
2.63848
2.6047
2.58268
2.60055
2.70537
3.00209
3.36232
3.56758
3.56575
3.56448
3.55648
3.52434
3.47323
3.41248
3.34633
3.27571
3.21216
3.1594
3.10886
3.05148
2.99485
2.94672
2.90552
2.86798
2.8319
2.79611
2.76107
2.72322
2.6715
2.62255
2.58801
2.55899
2.52933
2.51216
2.5003
2.51709
2.58059
2.72669
2.90193
3.00943
3.05895
3.11349
3.10241
3.34869
3.32772
3.30242
3.29412
3.29093
3.28007
3.2322
3.13192
2.98886
2.81748
2.6684
2.48431
2.49357
2.78642
3.49937
4.13639
4.2288
4.11877
3.91393
3.71197
3.53564
3.3879
3.25531
3.12819
3.00577
2.8934
2.79238
2.68553
2.57806
2.47285
2.37545
2.28121
2.20476
2.14415
2.09741
2.04455
2.0101
1.99177
2.05245
2.34315
2.8633
3.31586
3.38071
3.35654
3.29488
3.22521
3.15887
3.09423
3.02581
2.94612
2.84889
2.75717
2.69294
2.64373
2.60474
2.56436
2.53027
2.50793
2.55087
2.72745
3.03226
3.32819
3.46307
3.52176
3.50668
3.4622
3.39638
3.33709
3.27811
3.20998
3.1313
3.06349
3.00627
2.95957
2.92206
2.8886
2.85734
2.82836
2.801
2.76876
2.71721
2.6414
2.57862
2.54683
2.52225
2.52275
2.52992
2.599
2.74632
2.92041
3.07778
3.12971