/*--------------------------------*- C++ -*----------------------------------*\
  =========                 |
  \\      /  F ield         | OpenFOAM: The Open Source CFD Toolbox
   \\    /   O peration     | Website:  https://openfoam.org
    \\  /    A nd           | Version:  7
     \\/     M anipulation  |
\*---------------------------------------------------------------------------*/
FoamFile
{
    version     2.0;
    format      ascii;
    class       volScalarField;
    location    "2.8";
    object      T;
}
// * * * * * * * * * * * * * * * * * * * * * * * * * * * * * * * * * * * * * //

dimensions      [0 0 0 1 0 0 0];

internalField   nonuniform List<scalar> 
4608
(
1
1
1
1
1
1
1
1
1
1
1
1
1
1
1
1
1
1
1
1
1
1
1
1
1
1
1
1
1
1
1
1
1
1
1
1
1
1
1
1
1
1
1
1
1
1
1
1
1
1
1
1
1
1
1
1
1
1
1
1
1
1
1
1
1
1
1
1
1
1
1
1
1
1
1
1
1
1
1
1
1
1
1
1
1
1
1
1
1
1
1
1
1
1
1
1
1
1
1
1
1
1
1
1
1
1
1
1
1
1
1
1
1
1
1
1
1
1
1
1
1
1
1
1
1
1
1
1
1
1
1
1
1
1
1
1
1
1
1
1
1
1
1
1
1
1
1
1
1
1
1
1
1
1
1
1
1
1
1
1
1
1
1
1
1
1
1
1
1
1
1
1
1
1
1
1
1
1
1
1
1
1
1
1
1
1
1
1
1
1
1
1
1
1
1
1
1
1
1
1
1
1
1
1
1
1
1
1
1
1
1
1
1
1
1
1
1
1
1
1
1
1
1
1
1
1
1
1
1
1
1
1
1
1
1
1
1
1
1
1
1
1
1
1
1
1
1
1
1
1
1
1
1
1
1
1
1
1
1
1
1
1
1
1
1
1
1
1
1
1
1
1
1
1
1
1
1
1
1
1
1
1
1
1
1
1
1
1
1
1
1
1
1
1
1
1
1
1
1
1
1
1
1
1
1
1
1
1
1
1
1
1
1
1
1
1
1
1
1
1
1
1
1
1
1
1
1
1
1
1
1
1
1
1
1
1
1
1
1
1
1
1
1
1
1
1
1
1
1
1
1
1
1
1
1
1
1
1
1
1
1
1
1
1
1
1
1
1
1
1
1
1
1
1
1
1
1
1
1
1
1
1
1
1
1
1
1
1
1
1
1
1
1
1
1
1
1
1
1
1
1
1
1
1
1
1
1
1
1
1
1
1
1
1
1
1
1
1
1
1
1
1
1
1
1
1
1
1
1
1
1
1
1
1
1
1
1
1
1
1
1
1
1
1
1
1
1
1
1
1
1
1
1
1
1
1
1
1
1
1
1
1
1
1
1
1
1
1
1
1
1
1
1
1
1
1
1
1
1
1
1
1
1
1
1
1
1
1
1
1
1
1
1
1
1
1
1
1
1
1
1
1
1
1
1
1
1
1
1
1
1
1
1
1
1
1
1
1
1
1
1
1
1
1
1
1
1
1
1
1
1
1
1
1
1
1
1
1
1
1
1
1
1
1
1
1
1
1
1
1
1
1
1
1
1
1
1
1
1
1
1
1
1
1
1
1
1
1
1
1
1
1
1
1
1
1
1
1
1
1
1
1
1
1
1
1
1
1
1
1
1
1
1
1
1
1
1
1
1
1
1
1
1
1
1
1
1
1
1
1
1
1
1
1
1
1
1
1
1
1
1
1
1
1
1
1
1
1
1
1
1
1
1
1
1
1
1
1
1
1
1
1
1
1
1
1
1
1
1
1
1
1
1
1
1
1
1
1
1
1
1
1
1
1
1
1
1
1
1
1
1
1
1
1
1
1
1
1
1
1
1
1
1
1
1
1
1
1
1
1
1
1
1
1
1
1
1
1
1
1
1
1
1
1
1
1
1
1
1
1
1
1
1
1
1
1
1
1
1
1
1
1
1
1
1
1
1
1
1
1
1
1
1
1
1
1
1
1
1
1
1
1
1
1
1
1
1
1
1
1
1
1
1
1
1
1
1
1
1
1
1
1
1
1
1
1
1
1
1.0784
1.18334
1.28523
1.39088
1.48788
1.56979
1.63942
1.68388
1.69806
1.68188
1.63806
1.58599
1.54332
1.52506
1.51371
1.51504
1.51992
1.52513
1.52995
1.53279
1.53459
1.53645
1.53953
1.54122
1.00072
1.00613
1.03065
1.07107
1.14656
1.23137
1.32409
1.40499
1.48365
1.51902
1.54705
1.56349
1.56246
1.5546
1.54081
1.53678
1.53314
1.53121
1.53319
1.53516
1.53695
1.53896
1.54084
1.54249
1
0.999981
1.00008
1.00007
1.00127
1.00816
1.03716
1.11677
1.26708
1.45261
1.56543
1.62323
1.62242
1.61246
1.59149
1.56156
1.53937
1.53883
1.54246
1.54438
1.54494
1.54539
1.54546
1.54627
1
0.999999
0.999999
1
0.999996
1.00001
0.999968
1.00068
1.01157
1.11333
1.30576
1.50551
1.59955
1.61166
1.60474
1.59213
1.57022
1.56377
1.56431
1.56135
1.55749
1.55635
1.55562
1.55589
1
1
1
1
1
1
0.999996
0.999997
0.999962
1.00061
1.01529
1.12754
1.34768
1.53044
1.62685
1.6232
1.61235
1.60335
1.59089
1.57934
1.57275
1.57071
1.56885
1.56996
1
1
1
1
1
1
1
1
0.999997
0.999997
0.999963
1.001
1.03106
1.16638
1.40517
1.55597
1.62007
1.61882
1.61044
1.59867
1.5883
1.58443
1.57959
1.5798
1
1
1
1
1
1
1
1
1
1
0.999996
0.999995
1.00001
1.00291
1.06345
1.24676
1.47214
1.56222
1.60345
1.6052
1.6002
1.58813
1.58414
1.58135
1
1
1
1
1
1
1
1
1
1
1
0.999999
0.999999
0.999989
1.00046
1.01158
1.12655
1.3351
1.53216
1.5805
1.58958
1.58627
1.58432
1.5819
1
1
1
1
1
1
1
1
1
1
1
1
1
0.999998
0.999999
0.999988
1.00296
1.04367
1.22418
1.4318
1.55758
1.58977
1.58898
1.58745
1
1
1
1
1
1
1
1
1
1
1
1
1
1
1
0.999999
0.999991
1.00031
1.0148
1.13475
1.3616
1.50296
1.55654
1.58074
1
1
1
1
1
1
1
1
1
1
1
1
1
1
1
1
0.999999
0.999998
1.00005
1.0052
1.06923
1.28141
1.47807
1.55478
1
1
1
1
1
1
1
1
1
1
1
1
1
1
1
1
1
1
0.999999
1
1.00158
1.04412
1.21784
1.41591
1
1
1
1
1
1
1
1
1
1
1
1
1
1
1
1
1
1
1
1
0.999999
1.00088
1.02122
1.15643
1
1
1
1
1
1
1
1
1
1
1
1
1
1
1
1
1
1
1
1
1
0.999999
1.00026
1.01008
1
1
1
1
1
1
1
1
1
1
1
1
1
1
1
1
1
1
1
1
1
1
0.999999
1.00001
1
1
1
1
1
1
1
1
1
1
1
1
1
1
1
1
1
1
1
1
1
1
1
0.999999
1
1
1
1
1
1
1
1
1
1
1
1
1
1
1
1
1
1
1
1
1
1
1
0.999998
1
1
1
1
1
1
1
1
1
1
1
1
1
1
1
1
1
1
1
1
1
1
1
1
1
1
1
1
1
1
1
1
1
1
1
1
1
1
1
1
1
1
1
1
1
0.999999
1.00034
1.00849
1
1
1
1
1
1
1
1
1
1
1
1
1
1
1
1
1
1
1
1
0.999999
1.00074
1.02155
1.15214
1
1
1
1
1
1
1
1
1
1
1
1
1
1
1
1
1
1
0.999999
1
1.00166
1.04156
1.20851
1.43543
1
1
1
1
1
1
1
1
1
1
1
1
1
1
1
1
0.999999
0.999998
1.00006
1.00501
1.07052
1.2753
1.47366
1.56259
1
1
1
1
1
1
1
1
1
1
1
1
1
1
1
0.999999
0.999991
1.00031
1.01481
1.13504
1.36051
1.49843
1.55963
1.58263
1
1
1
1
1
1
1
1
1
1
1
1
1
0.999998
0.999999
0.999988
1.00296
1.04368
1.22301
1.4349
1.55514
1.58877
1.58922
1.58793
1
1
1
1
1
1
1
1
1
1
1
0.999999
0.999999
0.999989
1.00046
1.01157
1.12683
1.3345
1.53179
1.58188
1.58905
1.5858
1.5841
1.58255
1
1
1
1
1
1
1
1
1
1
0.999996
0.999996
1.00001
1.00291
1.0634
1.24685
1.47212
1.56177
1.60373
1.60551
1.60038
1.58768
1.58401
1.58164
1
1
1
1
1
1
1
1
0.999997
0.999997
0.999963
1.001
1.03108
1.16633
1.40504
1.55615
1.61996
1.61873
1.61042
1.59887
1.58828
1.58424
1.57959
1.57974
1
1
1
1
1
1
0.999996
0.999997
0.999962
1.00061
1.01529
1.12754
1.34773
1.53027
1.62692
1.62329
1.61235
1.60329
1.59084
1.57948
1.57267
1.5707
1.56893
1.56995
1
0.999999
0.999999
1
0.999996
1.00001
0.999968
1.00068
1.01157
1.11334
1.30573
1.5056
1.59945
1.61165
1.60478
1.59217
1.57032
1.56364
1.5643
1.56142
1.55749
1.55638
1.55565
1.55589
1
0.999981
1.00008
1.00007
1.00126
1.00816
1.03716
1.11677
1.26708
1.45262
1.56542
1.62323
1.62242
1.61246
1.59148
1.56159
1.53936
1.53876
1.54249
1.54441
1.54491
1.54537
1.54548
1.54628
1.00072
1.00614
1.03065
1.07106
1.14656
1.23138
1.3241
1.40498
1.48366
1.51903
1.54705
1.56348
1.56246
1.55461
1.54079
1.53677
1.53312
1.53123
1.5332
1.53516
1.53693
1.53895
1.54085
1.54249
1.07841
1.18334
1.28522
1.39088
1.48789
1.56979
1.63941
1.68387
1.69806
1.68189
1.63807
1.58598
1.54334
1.52506
1.5137
1.51503
1.51991
1.52514
1.52995
1.53279
1.53457
1.53645
1.53955
1.54121
1.39861
1.23781
1.1124
0.985297
0.970486
1.00253
1.02081
1.0152
1.02512
1.0459
1.06402
1.07917
1.10077
1.11227
1.11173
1.10666
1.10511
1.10862
1.11361
1.11719
1.11648
1.11233
1.10732
1.12562
1.26715
1.52737
1.75757
1.97349
2.13553
2.17856
2.13393
2.0598
2.0042
1.97765
1.95862
1.93507
1.90758
1.8837
1.86475
1.84758
1.83031
1.81231
1.79355
1.77461
1.75618
1.73821
1.72001
1.70057
1.68038
1.6615
1.64505
1.63073
1.61919
1.60997
1.60095
1.59025
1.5766
1.56031
1.54355
1.52856
1.51511
1.50252
1.49113
1.48062
1.47014
1.45905
1.44901
1.43868
1.42831
1.42024
1.41275
1.42126
1.45202
1.51662
1.61578
1.71569
1.79072
1.85695
1.89523
1.89412
1.88096
1.85402
1.82135
1.79053
1.77294
1.76728
1.76435
1.76504
1.76247
1.75733
1.75141
1.74011
1.71553
1.69317
1.68784
1.68089
1.49629
1.41341
1.33453
1.24053
1.14831
1.13318
1.11688
1.07569
1.05821
1.05492
1.05098
1.05113
1.05624
1.06748
1.07198
1.07264
1.07476
1.08086
1.08685
1.09307
1.09278
1.09502
1.11842
1.26733
1.49689
1.55978
1.62978
1.7254
1.85996
1.96136
2.03293
2.03998
2.01804
1.9925
1.96675
1.9394
1.91069
1.88924
1.87305
1.85575
1.83739
1.81966
1.80172
1.78386
1.76614
1.7478
1.72842
1.70833
1.68881
1.67152
1.65642
1.64261
1.62981
1.61794
1.60801
1.5974
1.58383
1.56732
1.55082
1.53717
1.52549
1.51415
1.50192
1.48945
1.47775
1.46637
1.4566
1.44694
1.43541
1.43543
1.44802
1.48891
1.54533
1.59267
1.6271
1.6723
1.71818
1.76726
1.81784
1.83738
1.84226
1.83802
1.82173
1.79682
1.78036
1.77319
1.76848
1.76716
1.76552
1.76147
1.75534
1.74389
1.72092
1.69868
1.69342
1.68675
1.53284
1.49165
1.42832
1.36175
1.27808
1.20916
1.17428
1.13169
1.07969
1.06721
1.05598
1.03835
1.03737
1.0453
1.04879
1.04783
1.04775
1.05189
1.05823
1.0649
1.07323
1.11824
1.27927
1.48567
1.58721
1.59125
1.58673
1.58898
1.62231
1.75527
1.92339
2.0172
2.03524
2.01752
1.97492
1.93677
1.91009
1.88934
1.86958
1.84846
1.82771
1.80869
1.7914
1.77437
1.75705
1.73905
1.72018
1.70177
1.68486
1.66919
1.65506
1.64143
1.62592
1.60804
1.59124
1.5799
1.56927
1.55694
1.54455
1.53348
1.522
1.51025
1.49638
1.48047
1.46563
1.45412
1.44737
1.44346
1.44639
1.46909
1.52735
1.59336
1.63048
1.64781
1.64496
1.64499
1.65459
1.68693
1.74173
1.78916
1.81762
1.83183
1.82823
1.80659
1.78844
1.77807
1.77234
1.76952
1.76449
1.7592
1.75321
1.7427
1.72391
1.70089
1.69206
1.68437
1.55064
1.53345
1.49206
1.44213
1.38186
1.30004
1.25239
1.22186
1.16596
1.13048
1.11448
1.08314
1.05507
1.05719
1.0569
1.05005
1.04368
1.03956
1.04019
1.04484
1.10032
1.28844
1.49101
1.58087
1.58667
1.58324
1.57157
1.55662
1.54113
1.55593
1.65201
1.83657
1.97745
1.97919
1.97183
1.9465
1.92113
1.8961
1.87189
1.84949
1.82944
1.81012
1.79085
1.77151
1.75299
1.73577
1.71893
1.70273
1.68797
1.67329
1.659
1.64542
1.63016
1.61182
1.59028
1.57236
1.56181
1.5532
1.54502
1.53541
1.524
1.51163
1.49742
1.48118
1.46552
1.45602
1.45143
1.45863
1.49934
1.56877
1.6414
1.6676
1.67206
1.66869
1.65783
1.64544
1.63456
1.63442
1.6512
1.68637
1.73835
1.78643
1.80835
1.8041
1.80094
1.79406
1.78578
1.77554
1.76524
1.75821
1.75293
1.74486
1.72902
1.70598
1.69488
1.68647
1.56484
1.55774
1.53772
1.49985
1.45503
1.39573
1.32501
1.28514
1.25004
1.20735
1.17158
1.13195
1.08679
1.07418
1.07291
1.06641
1.05133
1.04356
1.0512
1.12223
1.32548
1.49492
1.57379
1.58551
1.57746
1.56284
1.54837
1.53393
1.52386
1.50904
1.51127
1.56445
1.7343
1.87416
1.94674
1.94563
1.9296
1.90118
1.87273
1.85153
1.83309
1.81308
1.79161
1.7694
1.74832
1.72838
1.70766
1.68884
1.67871
1.67336
1.6669
1.65705
1.64363
1.6246
1.59799
1.57093
1.55351
1.54178
1.53347
1.52789
1.52494
1.51778
1.5066
1.49101
1.47368
1.47035
1.48762
1.54165
1.61328
1.67299
1.69407
1.69204
1.68443
1.67449
1.66224
1.64815
1.63289
1.62065
1.61891
1.6242
1.65067
1.70432
1.75926
1.794
1.80268
1.79964
1.78833
1.77613
1.76642
1.75846
1.75115
1.74131
1.72879
1.71431
1.70022
1.68613
1.57748
1.57394
1.56679
1.54584
1.50868
1.46354
1.41235
1.35558
1.30552
1.27086
1.24092
1.21019
1.15359
1.11239
1.11319
1.11083
1.09741
1.10333
1.18856
1.39413
1.54789
1.59569
1.59129
1.57786
1.5613
1.54403
1.52958
1.51718
1.50576
1.49328
1.47883
1.46505
1.48696
1.59765
1.7613
1.87883
1.8928
1.88915
1.87229
1.85387
1.83533
1.81419
1.79179
1.76913
1.74653
1.72451
1.70523
1.69034
1.67718
1.66417
1.65386
1.64498
1.63431
1.61966
1.59668
1.56774
1.54866
1.53912
1.53168
1.52394
1.51529
1.50654
1.50306
1.49693
1.49965
1.52996
1.59513
1.65765
1.70032
1.71714
1.71602
1.70857
1.69785
1.68469
1.66876
1.64974
1.62994
1.61898
1.61396
1.61381
1.61613
1.6336
1.67494
1.72833
1.76901
1.77811
1.77614
1.77396
1.76949
1.76039
1.75018
1.73992
1.7299
1.71936
1.70571
1.68849
1.58202
1.58169
1.57897
1.5729
1.55255
1.51505
1.47032
1.42856
1.38344
1.32148
1.28655
1.27074
1.24163
1.19296
1.15359
1.14307
1.16352
1.271
1.47919
1.62278
1.64129
1.62518
1.59678
1.57224
1.55398
1.53598
1.51979
1.50695
1.49395
1.48089
1.46433
1.44977
1.42638
1.42691
1.4781
1.63392
1.78074
1.85011
1.86427
1.85429
1.83531
1.81452
1.79346
1.77055
1.74503
1.72101
1.70274
1.68762
1.67303
1.65917
1.64852
1.63987
1.63008
1.61668
1.5946
1.56719
1.54982
1.53958
1.52966
1.52064
1.51334
1.51056
1.51382
1.53523
1.58783
1.65793
1.70029
1.71766
1.72853
1.72594
1.71766
1.70821
1.69793
1.68493
1.66811
1.64706
1.6288
1.6209
1.61545
1.61119
1.61023
1.61073
1.61859
1.64197
1.67824
1.72135
1.74768
1.76218
1.76506
1.7597
1.74942
1.74013
1.73194
1.72232
1.71154
1.69435
1.58111
1.58111
1.58062
1.57725
1.5706
1.55272
1.51843
1.47476
1.44066
1.39982
1.34642
1.30684
1.28814
1.26421
1.22899
1.26038
1.40415
1.58543
1.69552
1.6954
1.67569
1.64371
1.61022
1.58337
1.55926
1.5372
1.51706
1.50156
1.48477
1.46816
1.454
1.43903
1.41805
1.40109
1.38452
1.40303
1.50887
1.66533
1.78215
1.81561
1.81633
1.80405
1.78714
1.76698
1.74126
1.71526
1.69677
1.68208
1.669
1.65673
1.64596
1.63595
1.62426
1.60848
1.58874
1.56823
1.5506
1.53621
1.5259
1.52169
1.52072
1.53348
1.58244
1.65481
1.7198
1.7408
1.74375
1.74449
1.73796
1.72797
1.71733
1.70797
1.69841
1.68622
1.66842
1.644
1.62925
1.62253
1.61581
1.61047
1.60706
1.60409
1.60268
1.59869
1.60354
1.62265
1.66788
1.70818
1.73501
1.74843
1.74804
1.7413
1.73492
1.72736
1.71704
1.6978
1.58499
1.58247
1.58058
1.5792
1.57742
1.57012
1.55184
1.52012
1.48028
1.44616
1.40929
1.36586
1.32793
1.31821
1.37446
1.55644
1.71725
1.76761
1.75633
1.72467
1.69026
1.65803
1.62813
1.60075
1.57395
1.54896
1.52553
1.5033
1.48123
1.45972
1.44335
1.42841
1.41115
1.39073
1.37442
1.35558
1.35589
1.40668
1.54867
1.69712
1.76517
1.77807
1.77111
1.75487
1.73301
1.70736
1.68796
1.67394
1.66252
1.65136
1.641
1.62937
1.61459
1.59653
1.57988
1.56525
1.54954
1.53537
1.53005
1.53345
1.56575
1.63768
1.72035
1.77251
1.77272
1.76225
1.75046
1.74068
1.73289
1.72502
1.71696
1.70782
1.69797
1.68601
1.6674
1.64243
1.62929
1.62263
1.61621
1.61039
1.60562
1.6011
1.59601
1.58996
1.57727
1.56871
1.58153
1.62136
1.674
1.71455
1.73725
1.73871
1.73313
1.72557
1.71692
1.69758
1.58199
1.58028
1.57916
1.57931
1.5801
1.57813
1.5696
1.55064
1.5219
1.48485
1.45123
1.40989
1.41704
1.51499
1.69657
1.84069
1.84574
1.8231
1.78431
1.74644
1.71192
1.67951
1.64789
1.61621
1.58508
1.55611
1.53066
1.50723
1.48504
1.46316
1.44326
1.42398
1.40508
1.38412
1.36627
1.34731
1.33302
1.32187
1.34124
1.44186
1.59093
1.69231
1.72894
1.72751
1.71388
1.69505
1.67735
1.66171
1.64893
1.63732
1.62757
1.61563
1.60105
1.58598
1.57211
1.55924
1.54857
1.54103
1.55176
1.6064
1.69895
1.76827
1.8055
1.80573
1.79675
1.77074
1.74564
1.73409
1.72611
1.71916
1.71291
1.70511
1.69495
1.68247
1.66468
1.64215
1.6284
1.62107
1.61464
1.60869
1.60306
1.59752
1.5908
1.58254
1.57033
1.55499
1.54681
1.55475
1.58884
1.64106
1.69417
1.71641
1.71649
1.71423
1.70909
1.69223
1.56542
1.5661
1.57059
1.57445
1.57708
1.57727
1.57356
1.56417
1.54443
1.52014
1.49113
1.52594
1.68078
1.85175
1.91525
1.90864
1.87656
1.83711
1.79931
1.76408
1.73049
1.69752
1.66456
1.63146
1.59904
1.56718
1.53644
1.50705
1.4809
1.46076
1.44468
1.42667
1.40696
1.3867
1.36609
1.34654
1.32599
1.31102
1.29709
1.29994
1.35102
1.4716
1.6017
1.67126
1.69125
1.68718
1.66945
1.65129
1.63701
1.62281
1.60894
1.59641
1.58468
1.57235
1.56302
1.55615
1.55859
1.58509
1.65831
1.75381
1.80617
1.80725
1.80524
1.79784
1.78449
1.76592
1.74698
1.732
1.72114
1.71174
1.70477
1.69821
1.68955
1.67763
1.66084
1.64138
1.62723
1.61843
1.61135
1.60504
1.59886
1.59229
1.584
1.57264
1.55919
1.54848
1.53926
1.53225
1.53599
1.56167
1.60972
1.66119
1.68672
1.69397
1.69272
1.68121
1.51781
1.57048
1.58157
1.58006
1.5744
1.57153
1.57156
1.56963
1.55804
1.56138
1.65133
1.83571
1.97644
2.00696
1.9874
1.93826
1.88891
1.84617
1.8088
1.77445
1.74169
1.7089
1.67539
1.64154
1.60836
1.5761
1.54561
1.51822
1.49317
1.46807
1.44295
1.41932
1.39967
1.38665
1.37138
1.35271
1.33106
1.31122
1.29241
1.27863
1.27111
1.28858
1.37176
1.51023
1.60838
1.64753
1.65053
1.64429
1.62946
1.61149
1.5936
1.57992
1.57172
1.56366
1.5653
1.58253
1.63978
1.7233
1.79651
1.83205
1.83041
1.81835
1.80044
1.78319
1.76908
1.75815
1.74534
1.73014
1.71705
1.70628
1.69736
1.68928
1.67942
1.66629
1.6514
1.63763
1.62619
1.61674
1.60857
1.60121
1.59374
1.58558
1.57601
1.56413
1.5516
1.5417
1.53469
1.527
1.5206
1.52187
1.53592
1.57108
1.61781
1.64785
1.6607
1.66332
1.36221
1.5218
1.56732
1.56664
1.56432
1.56394
1.5653
1.57187
1.61517
1.77104
1.98057
2.05207
2.04399
2.02562
1.99004
1.94597
1.89885
1.85317
1.81247
1.77732
1.74627
1.71589
1.68366
1.64996
1.61547
1.58174
1.55106
1.52363
1.4978
1.47396
1.45186
1.43026
1.40845
1.38766
1.3668
1.34742
1.33439
1.32041
1.30287
1.28066
1.26161
1.25274
1.25598
1.30382
1.42174
1.53847
1.6023
1.61333
1.60789
1.59634
1.57826
1.56442
1.56492
1.57702
1.62136
1.70401
1.78696
1.83204
1.83245
1.82366
1.81382
1.806
1.79505
1.7789
1.76274
1.75157
1.74103
1.72856
1.71571
1.70331
1.69143
1.68076
1.66935
1.65572
1.6425
1.63215
1.62336
1.61487
1.60614
1.59775
1.5897
1.58042
1.56921
1.55723
1.54865
1.54148
1.53413
1.52565
1.51557
1.50923
1.50737
1.51322
1.53375
1.56888
1.60623
1.63447
1.11688
1.3368
1.48747
1.53558
1.55694
1.5659
1.59171
1.69367
1.8848
2.05429
2.12992
2.12151
2.07664
2.02794
1.98897
1.94861
1.9052
1.86145
1.82003
1.78148
1.74653
1.71608
1.68672
1.65527
1.62213
1.58931
1.55919
1.53297
1.50737
1.47899
1.45056
1.42875
1.41294
1.396
1.37725
1.35807
1.3363
1.31167
1.29057
1.27381
1.25861
1.24781
1.23858
1.23714
1.25964
1.3374
1.46273
1.54526
1.57689
1.57476
1.56663
1.56885
1.60582
1.68273
1.76837
1.83335
1.86935
1.86774
1.84856
1.8202
1.80073
1.79051
1.78054
1.76867
1.75571
1.74362
1.73294
1.72335
1.71353
1.70224
1.68921
1.67623
1.66316
1.64988
1.6382
1.62829
1.61986
1.6123
1.60432
1.59477
1.58513
1.57579
1.56585
1.55626
1.54838
1.54133
1.53437
1.52653
1.51655
1.50638
1.49751
1.49057
1.4911
1.50066
1.52657
1.58677
1.00803
1.07997
1.28866
1.45067
1.56117
1.62256
1.77419
1.96326
2.08382
2.12293
2.12223
2.11116
2.08594
2.04457
1.99916
1.95244
1.90794
1.86837
1.83147
1.79403
1.75452
1.71668
1.68202
1.65022
1.62103
1.59443
1.56897
1.54475
1.51782
1.48741
1.46052
1.43632
1.41313
1.39153
1.37067
1.35314
1.33637
1.31666
1.29518
1.27686
1.26215
1.2503
1.23734
1.22547
1.21322
1.21779
1.26432
1.3697
1.47852
1.55386
1.58855
1.64973
1.75442
1.83652
1.86318
1.86955
1.86702
1.86097
1.84188
1.81974
1.80221
1.78639
1.77345
1.76136
1.75204
1.74636
1.73869
1.72744
1.7151
1.70181
1.68837
1.67414
1.65903
1.64607
1.63716
1.63049
1.62474
1.6183
1.6092
1.59703
1.58447
1.57438
1.56602
1.55804
1.55022
1.54294
1.53534
1.52801
1.52179
1.51061
1.49456
1.48229
1.47629
1.4752
1.48036
1.52684
1.0001
1.00469
1.0627
1.25132
1.60053
1.79641
1.97898
2.10849
2.1711
2.16076
2.13003
2.10473
2.08716
2.0542
2.00475
1.95373
1.90925
1.86966
1.83277
1.80303
1.77395
1.73561
1.69458
1.65794
1.62438
1.59555
1.56895
1.54072
1.5166
1.50104
1.48184
1.4553
1.42495
1.39998
1.37972
1.36088
1.3395
1.3173
1.30379
1.29187
1.27945
1.26505
1.24563
1.22511
1.20831
1.19809
1.19983
1.2221
1.31791
1.5148
1.66457
1.7764
1.87221
1.92082
1.91682
1.9031
1.87328
1.84476
1.82928
1.81758
1.8051
1.78818
1.77235
1.76155
1.75431
1.74456
1.73125
1.71858
1.7075
1.69727
1.68515
1.67063
1.65623
1.64608
1.63993
1.63386
1.62557
1.61434
1.60091
1.58641
1.57524
1.56758
1.56254
1.5591
1.55562
1.55061
1.54338
1.5344
1.52151
1.50604
1.49056
1.47874
1.47203
1.46766
1.46806
1.48875
1.00018
1.00475
1.05007
1.25438
1.51574
1.82865
2.01768
2.09756
2.16635
2.15412
2.11917
2.09472
2.07611
2.044
2.00094
1.95873
1.91983
1.88214
1.84525
1.8064
1.76457
1.72352
1.68209
1.64972
1.63017
1.60825
1.58205
1.55405
1.52521
1.49456
1.46464
1.43611
1.40826
1.39025
1.38358
1.3745
1.35618
1.32987
1.30008
1.27695
1.26168
1.24944
1.23291
1.21917
1.21177
1.20302
1.20545
1.23155
1.33972
1.49658
1.68321
1.81647
1.8695
1.90947
1.91805
1.89811
1.862
1.83616
1.82562
1.81804
1.8086
1.79369
1.77803
1.76584
1.75475
1.74088
1.72653
1.71543
1.70747
1.69882
1.68467
1.66613
1.65792
1.65429
1.64919
1.64281
1.63322
1.6176
1.59836
1.58274
1.57376
1.56912
1.56523
1.56078
1.55526
1.54848
1.53999
1.52938
1.5172
1.50303
1.48868
1.47826
1.47194
1.46751
1.46809
1.48463
1.01042
1.09465
1.26189
1.45706
1.50301
1.65045
1.82275
1.96207
2.07822
2.11909
2.11883
2.10544
2.07584
2.03214
1.9912
1.95249
1.91343
1.87631
1.84032
1.80112
1.75993
1.72154
1.68641
1.65198
1.61728
1.58723
1.56005
1.53448
1.51141
1.48756
1.46019
1.42723
1.40431
1.39243
1.37555
1.35546
1.33983
1.32196
1.29973
1.2785
1.25995
1.24336
1.22973
1.22027
1.2135
1.21816
1.26357
1.36864
1.49649
1.53299
1.6
1.69812
1.75719
1.82448
1.86112
1.86282
1.86076
1.85189
1.83755
1.81715
1.80362
1.79859
1.79073
1.77698
1.75803
1.73956
1.72587
1.71597
1.70726
1.69759
1.68553
1.67262
1.66081
1.65111
1.64465
1.63857
1.62985
1.6146
1.59525
1.58527
1.58065
1.57655
1.57186
1.56637
1.55955
1.55118
1.54144
1.52843
1.51379
1.50118
1.49234
1.48301
1.47721
1.47802
1.48537
1.53282
1.13955
1.3396
1.47478
1.54691
1.55482
1.56761
1.59928
1.69101
1.87207
2.05952
2.12787
2.11564
2.06954
2.01971
1.98653
1.95479
1.91713
1.87499
1.83098
1.78737
1.74726
1.7114
1.67827
1.64618
1.61388
1.5842
1.55805
1.53405
1.50945
1.48163
1.45413
1.4323
1.41273
1.39139
1.36965
1.3453
1.33216
1.32528
1.31264
1.29396
1.27125
1.24806
1.23643
1.22897
1.24413
1.3304
1.44747
1.54338
1.58262
1.57789
1.57303
1.58084
1.6028
1.66712
1.75363
1.83144
1.86166
1.86109
1.84699
1.82283
1.80215
1.79645
1.79027
1.77762
1.75932
1.74161
1.72876
1.71937
1.71064
1.70006
1.68701
1.67461
1.66334
1.65388
1.64594
1.63782
1.62802
1.61422
1.59836
1.58441
1.57527
1.57027
1.56571
1.56054
1.55453
1.54791
1.54001
1.52857
1.51239
1.49654
1.48979
1.4886
1.49018
1.50522
1.53856
1.60199
1.40073
1.50592
1.54938
1.56505
1.56468
1.56582
1.57214
1.57989
1.61838
1.78338
1.99275
2.04567
2.04107
2.0231
1.99174
1.95385
1.90982
1.86301
1.81689
1.77477
1.73793
1.70515
1.67416
1.64353
1.61331
1.58393
1.55488
1.52649
1.50153
1.48022
1.45729
1.43022
1.40284
1.37791
1.35918
1.3443
1.32978
1.31461
1.29928
1.28317
1.27053
1.25338
1.25544
1.30246
1.41426
1.53222
1.59741
1.61679
1.61478
1.60764
1.58911
1.56865
1.55804
1.5654
1.60674
1.69797
1.79297
1.83724
1.83461
1.8267
1.81837
1.80814
1.79446
1.77772
1.76096
1.74719
1.7369
1.7275
1.71707
1.70572
1.69488
1.68361
1.67072
1.65774
1.64614
1.6363
1.62802
1.61982
1.6082
1.59279
1.57963
1.57208
1.56727
1.56197
1.5561
1.54945
1.53999
1.5273
1.51346
1.50098
1.49778
1.50444
1.5314
1.57336
1.62205
1.65425
1.52978
1.55871
1.57399
1.57537
1.57408
1.57369
1.57276
1.56974
1.55838
1.56405
1.66185
1.83609
1.97793
2.00852
1.98877
1.94161
1.89253
1.84787
1.80631
1.76768
1.73211
1.69899
1.66769
1.63774
1.60866
1.58027
1.55325
1.52716
1.50234
1.47705
1.44885
1.41963
1.39556
1.37876
1.36275
1.34612
1.32972
1.3155
1.30018
1.28721
1.27701
1.29432
1.3841
1.51389
1.61076
1.646
1.6512
1.64414
1.63033
1.6142
1.59446
1.57455
1.56188
1.56068
1.5622
1.58227
1.64787
1.73564
1.80512
1.83563
1.83349
1.8173
1.79363
1.77948
1.76901
1.75918
1.74904
1.73672
1.7226
1.70934
1.69876
1.68825
1.67547
1.6616
1.64932
1.63897
1.62937
1.61999
1.61089
1.60043
1.58789
1.57817
1.5712
1.56448
1.55713
1.54872
1.53823
1.52868
1.51987
1.51902
1.52747
1.55913
1.60521
1.6439
1.67322
1.67764
1.56912
1.56623
1.56723
1.57136
1.57511
1.57725
1.57338
1.56265
1.54205
1.5184
1.49119
1.52554
1.67822
1.85437
1.92096
1.91033
1.87618
1.83608
1.79553
1.75714
1.72227
1.69062
1.66095
1.6317
1.60212
1.57294
1.54547
1.51843
1.49376
1.47043
1.44639
1.4206
1.39672
1.377
1.35911
1.34243
1.32737
1.31632
1.30702
1.31138
1.3556
1.48047
1.6137
1.6712
1.68769
1.6828
1.66873
1.65565
1.64248
1.62812
1.60844
1.58708
1.57807
1.56893
1.56181
1.56042
1.56605
1.59526
1.67142
1.7547
1.79829
1.79912
1.79545
1.79048
1.78232
1.77135
1.75816
1.74389
1.72931
1.71619
1.70446
1.69222
1.67814
1.66434
1.65279
1.64294
1.63389
1.62559
1.61775
1.60976
1.60034
1.58681
1.57356
1.56435
1.55685
1.54801
1.54154
1.53919
1.54457
1.56246
1.59951
1.64089
1.66639
1.67971
1.69302
1.68984
1.58325
1.58144
1.57926
1.5791
1.57976
1.5786
1.56996
1.5499
1.52029
1.48363
1.45089
1.40983
1.41625
1.51388
1.69792
1.83155
1.84306
1.82217
1.78334
1.74396
1.70879
1.67836
1.64972
1.62078
1.59169
1.5644
1.53986
1.51435
1.48903
1.46389
1.43927
1.41445
1.39301
1.37521
1.36066
1.34514
1.33644
1.33283
1.3529
1.44709
1.58827
1.69878
1.71999
1.72112
1.71127
1.69686
1.68292
1.67115
1.65966
1.64533
1.62556
1.60495
1.59025
1.57902
1.5698
1.56052
1.55387
1.55025
1.56194
1.60933
1.68596
1.75546
1.78978
1.79405
1.7894
1.77804
1.76341
1.75063
1.7382
1.72437
1.70784
1.69174
1.67756
1.66603
1.65651
1.64786
1.63996
1.63321
1.62739
1.61983
1.60645
1.58727
1.57239
1.56351
1.55634
1.55273
1.55455
1.57313
1.61137
1.65356
1.68992
1.70269
1.69697
1.69519
1.69455
1.68841
1.58515
1.58311
1.5811
1.57915
1.57718
1.57043
1.55227
1.52001
1.47975
1.44576
1.40917
1.36573
1.32786
1.31788
1.37294
1.54549
1.70944
1.76691
1.75601
1.72438
1.6894
1.65832
1.63119
1.60604
1.58031
1.55563
1.53202
1.50669
1.47963
1.45543
1.4346
1.41542
1.39896
1.38393
1.37287
1.35868
1.36229
1.41988
1.5604
1.69476
1.7593
1.77561
1.76741
1.7473
1.72849
1.71243
1.69667
1.68186
1.66864
1.65488
1.63813
1.61846
1.6016
1.58842
1.57729
1.56548
1.55476
1.54532
1.53824
1.53973
1.56076
1.62557
1.70315
1.75193
1.76617
1.76994
1.76758
1.75814
1.74625
1.73024
1.70919
1.68922
1.67626
1.66732
1.66
1.65293
1.6459
1.63979
1.63402
1.6258
1.61068
1.58725
1.57162
1.56478
1.56351
1.5687
1.59842
1.65473
1.70947
1.73476
1.74261
1.73565
1.71311
1.69984
1.69574
1.68697
1.58122
1.58126
1.58088
1.57752
1.5713
1.55356
1.51876
1.47504
1.44058
1.39933
1.34618
1.30716
1.28819
1.26387
1.22853
1.25711
1.39873
1.58854
1.69724
1.69659
1.67553
1.64392
1.61388
1.58777
1.56235
1.54107
1.52198
1.5033
1.48065
1.45976
1.44103
1.42341
1.40805
1.3973
1.38994
1.41335
1.52471
1.69028
1.79059
1.81093
1.80708
1.79283
1.77349
1.75277
1.73792
1.72327
1.70683
1.69058
1.67478
1.65924
1.64458
1.62906
1.61325
1.59783
1.58423
1.57188
1.5594
1.54772
1.53559
1.5299
1.5208
1.52546
1.56149
1.63574
1.70314
1.7464
1.76338
1.76165
1.7531
1.73601
1.71388
1.68996
1.6739
1.66637
1.66058
1.65542
1.64964
1.6441
1.63703
1.62633
1.60993
1.58703
1.57444
1.57391
1.58501
1.62416
1.68544
1.74132
1.76164
1.76278
1.75844
1.7418
1.71901
1.7045
1.69864
1.68852
1.58228
1.58184
1.57877
1.57282
1.55275
1.51523
1.47057
1.42875
1.38311
1.32083
1.28687
1.27101
1.24141
1.19269
1.15333
1.14331
1.16337
1.27515
1.48573
1.62138
1.64324
1.62881
1.60101
1.57584
1.55364
1.537
1.52297
1.50707
1.489
1.47151
1.45261
1.43517
1.42236
1.42748
1.49157
1.65112
1.80269
1.87138
1.86422
1.84499
1.81675
1.7956
1.77639
1.75855
1.74465
1.73137
1.71638
1.69978
1.68177
1.66209
1.64497
1.63201
1.62008
1.60594
1.58877
1.57566
1.56835
1.56005
1.54649
1.52934
1.51542
1.49939
1.49389
1.51287
1.57417
1.6514
1.71702
1.73957
1.74088
1.73714
1.71999
1.69236
1.67244
1.66519
1.65945
1.65417
1.64801
1.64127
1.63379
1.62413
1.61038
1.58987
1.58954
1.60793
1.65435
1.7096
1.75836
1.77886
1.78034
1.77679
1.76314
1.74261
1.72413
1.71093
1.70224
1.69006
1.57745
1.57403
1.56684
1.54595
1.50882
1.46351
1.41254
1.35557
1.30512
1.27085
1.24126
1.21024
1.1529
1.11239
1.11327
1.11097
1.0977
1.10443
1.19298
1.39497
1.54522
1.59978
1.5935
1.57636
1.55556
1.53902
1.52801
1.51602
1.50441
1.48968
1.47169
1.45875
1.48099
1.59973
1.77419
1.89185
1.90567
1.89824
1.87398
1.84137
1.81601
1.79722
1.78076
1.76744
1.75429
1.74006
1.72578
1.70681
1.68265
1.66046
1.64421
1.63205
1.62063
1.60867
1.59561
1.58199
1.56862
1.55628
1.54343
1.52922
1.51338
1.4967
1.48109
1.47529
1.48398
1.52573
1.60477
1.67766
1.71688
1.72356
1.71863
1.69692
1.67271
1.66225
1.65513
1.65008
1.64532
1.63853
1.63115
1.62503
1.61712
1.62141
1.65039
1.70007
1.74361
1.77103
1.78246
1.78061
1.77543
1.76776
1.75477
1.7389
1.72665
1.71737
1.70767
1.69184
1.56479
1.55772
1.53775
1.50001
1.45502
1.3955
1.32537
1.28526
1.24963
1.20728
1.17188
1.13166
1.0864
1.0741
1.07275
1.06626
1.05128
1.04366
1.05125
1.12609
1.31674
1.50451
1.58427
1.58071
1.56884
1.55394
1.54422
1.53255
1.52378
1.51035
1.51267
1.57095
1.73475
1.88678
1.95051
1.94595
1.92835
1.89516
1.86493
1.83818
1.81849
1.80224
1.78847
1.77909
1.7695
1.75187
1.72723
1.70118
1.68024
1.66353
1.64864
1.63491
1.6216
1.60782
1.59405
1.58391
1.57278
1.55845
1.54464
1.5328
1.51924
1.50373
1.48472
1.4691
1.46472
1.46669
1.49444
1.55833
1.6313
1.68024
1.69489
1.68991
1.67616
1.66203
1.65167
1.64374
1.63698
1.6349
1.63283
1.64004
1.66319
1.7046
1.75602
1.78717
1.80092
1.79833
1.78716
1.77272
1.76135
1.75352
1.7439
1.73219
1.72451
1.71898
1.71245
1.69599
1.55061
1.5334
1.49211
1.44229
1.38152
1.30002
1.25294
1.22173
1.16529
1.13111
1.11481
1.08234
1.05505
1.05744
1.05674
1.04969
1.04348
1.03961
1.04027
1.04516
1.10027
1.27761
1.51175
1.57276
1.57782
1.57529
1.56841
1.55421
1.54203
1.55866
1.66118
1.85445
1.98302
1.98231
1.96905
1.93902
1.91108
1.88537
1.86109
1.84344
1.83096
1.8183
1.80457
1.78661
1.76218
1.73797
1.71578
1.69495
1.67746
1.66529
1.65496
1.64452
1.63255
1.61822
1.60171
1.58357
1.56624
1.55241
1.54079
1.52886
1.51592
1.50295
1.4888
1.47454
1.46221
1.45496
1.45776
1.47228
1.51219
1.57911
1.63418
1.65924
1.66639
1.66205
1.64961
1.63933
1.63634
1.63963
1.65812
1.69868
1.74757
1.79061
1.81417
1.81395
1.81039
1.80014
1.78446
1.76873
1.75347
1.74367
1.73794
1.73414
1.73043
1.72517
1.71687
1.69845
1.53283
1.49158
1.42841
1.36167
1.27765
1.20959
1.17454
1.13117
1.07979
1.06769
1.05588
1.03812
1.03741
1.04564
1.04855
1.04758
1.04759
1.05194
1.0583
1.06489
1.07355
1.11319
1.292
1.49799
1.57956
1.58481
1.58343
1.58611
1.62132
1.75787
1.93807
2.02522
2.03347
2.00984
1.96133
1.92558
1.90427
1.88693
1.86842
1.85172
1.83409
1.81446
1.79503
1.77474
1.75343
1.73163
1.71135
1.69366
1.68154
1.67144
1.6597
1.64588
1.63045
1.61463
1.59848
1.58081
1.56404
1.55065
1.53955
1.52896
1.51821
1.50653
1.4946
1.48392
1.47203
1.45782
1.44601
1.43923
1.44188
1.4617
1.51842
1.5804
1.63211
1.64387
1.64452
1.64568
1.65795
1.68421
1.7272
1.78065
1.81274
1.83199
1.83347
1.82858
1.81587
1.79803
1.78167
1.76659
1.75007
1.73848
1.73251
1.72828
1.72485
1.71999
1.71285
1.69778
1.49625
1.41344
1.33466
1.24002
1.14841
1.13366
1.11675
1.07512
1.0584
1.0551
1.05094
1.05106
1.05633
1.06763
1.07177
1.07243
1.07474
1.08101
1.08684
1.09319
1.0928
1.09481
1.12174
1.28806
1.49043
1.55608
1.63103
1.72379
1.86087
1.97002
2.04697
2.04088
2.0152
1.98392
1.95357
1.93009
1.91432
1.89994
1.88501
1.86816
1.84711
1.82166
1.79221
1.76489
1.74631
1.73327
1.72016
1.70861
1.69846
1.68638
1.6717
1.65503
1.63764
1.62016
1.60245
1.58491
1.56947
1.55699
1.54673
1.53762
1.52918
1.52082
1.51219
1.50179
1.48736
1.46646
1.44469
1.42989
1.42179
1.42324
1.4365
1.47898
1.54735
1.61192
1.64703
1.68932
1.74236
1.76954
1.79506
1.81566
1.83077
1.83517
1.82969
1.81901
1.80563
1.79203
1.77942
1.76589
1.74966
1.73849
1.73292
1.72861
1.72431
1.71963
1.71449
1.70198
1.39858
1.23792
1.11226
0.984527
0.970773
1.00349
1.02009
1.0147
1.02531
1.04605
1.06414
1.07926
1.10068
1.11211
1.11158
1.10659
1.10525
1.10886
1.11372
1.11732
1.11659
1.11231
1.10777
1.13057
1.26058
1.50881
1.75298
1.97728
2.1395
2.18481
2.13948
2.05891
1.99792
1.96757
1.94788
1.92677
1.90864
1.89355
1.87906
1.86303
1.84284
1.8171
1.78657