/*--------------------------------*- C++ -*----------------------------------*\
  =========                 |
  \\      /  F ield         | OpenFOAM: The Open Source CFD Toolbox
   \\    /   O peration     | Website:  https://openfoam.org
    \\  /    A nd           | Version:  7
     \\/     M anipulation  |
\*---------------------------------------------------------------------------*/
FoamFile
{
    version     2.0;
    format      ascii;
    class       volVectorField;
    location    "2.8";
    object      U;
}
// * * * * * * * * * * * * * * * * * * * * * * * * * * * * * * * * * * * * * //

dimensions      [0 1 -1 0 0 0 0];

internalField   nonuniform List<vector> 
4608
(
(3 -6.33313e-17 0)
(3 2.0232e-16 0)
(3 7.37863e-16 0)
(3 8.02675e-16 0)
(3 2.30585e-16 0)
(3 -7.34382e-16 0)
(3 -8.02638e-16 0)
(3 -3.60646e-17 0)
(3 2.40023e-16 0)
(3 3.50808e-16 0)
(3 1.56153e-15 0)
(3 1.78313e-15 0)
(3 1.40527e-15 0)
(3 9.47995e-16 0)
(3 7.63749e-16 0)
(3 -1.69568e-16 0)
(3 -7.45369e-16 0)
(3 -8.23385e-16 0)
(3 -6.69127e-16 0)
(3 -6.39454e-16 0)
(3 -4.39075e-16 0)
(3 -4.65412e-16 0)
(3 -6.81885e-16 0)
(3 -3.34915e-16 0)
(3 1.65208e-16 0)
(3 4.41266e-16 0)
(3 1.16729e-15 0)
(3 1.24598e-15 0)
(3 6.11529e-16 0)
(3 -7.57248e-16 0)
(3 -9.9349e-16 0)
(3 4.15827e-17 0)
(3 1.24318e-15 0)
(3 1.53645e-15 0)
(3 1.39635e-15 0)
(3 1.37918e-15 0)
(3 1.13766e-15 0)
(3 3.85143e-16 0)
(3 2.32222e-16 0)
(3 -1.12446e-15 0)
(3 -2.12026e-15 0)
(3 -2.19499e-15 0)
(3 -1.60678e-15 0)
(3 -1.21855e-15 0)
(3 -1.50931e-15 0)
(3 -1.59198e-15 0)
(3 -1.4241e-15 0)
(3 -7.59709e-16 0)
(3 1.90684e-16 0)
(3 1.53483e-16 0)
(3 1.51765e-16 0)
(3 2.33625e-16 0)
(3 2.83779e-16 0)
(3 -6.00018e-17 0)
(3 -6.27615e-16 0)
(3 -1.79289e-16 0)
(3 5.00485e-16 0)
(3 6.58336e-16 0)
(3 1.60105e-16 0)
(3 4.04281e-18 0)
(3 -5.47986e-16 0)
(3 -1.03334e-15 0)
(3 -1.49316e-15 0)
(3 -2.48447e-15 0)
(3 -2.30532e-15 0)
(3 -2.01857e-15 0)
(3 -1.87048e-15 0)
(3 -1.38459e-15 0)
(3 -1.55225e-15 0)
(3 -1.74315e-15 0)
(3 -1.67015e-15 0)
(3 -9.4679e-16 0)
(3 -6.86547e-17 0)
(3 9.85981e-17 0)
(3 2.80145e-17 0)
(3 3.71856e-17 0)
(3 3.25559e-16 0)
(3 6.20851e-16 0)
(3 7.12053e-16 0)
(3 2.02352e-16 0)
(3 2.60251e-16 0)
(3 5.00758e-16 0)
(3 2.39862e-16 0)
(3 -7.64689e-16 0)
(3 -1.35356e-15 0)
(3 -1.02881e-15 0)
(3 -1.31485e-15 0)
(3 -2.42868e-15 0)
(3 -2.08564e-15 0)
(3 -1.52806e-15 0)
(3 -5.79747e-16 0)
(3 -1.66455e-16 0)
(3 -1.51765e-16 0)
(3 -9.84331e-18 0)
(3 3.96748e-16 0)
(3 6.37809e-16 0)
(3 -3.19073e-16 0)
(3 1.93358e-16 0)
(3 5.73479e-16 0)
(3 5.25834e-16 0)
(3 -2.67602e-17 0)
(3 -3.91681e-17 0)
(3 -4.23348e-17 0)
(3 -2.16378e-16 0)
(3 1.13782e-16 0)
(3 3.67611e-16 0)
(3 6.26269e-16 0)
(3 -2.09895e-16 0)
(3 -8.1453e-16 0)
(3 -7.67585e-16 0)
(3 -9.92777e-16 0)
(3 -9.26803e-16 0)
(3 -5.69874e-16 0)
(3 -3.84996e-16 0)
(3 -1.22258e-16 0)
(3 -4.23767e-16 0)
(3 5.60886e-17 0)
(3 8.05002e-16 0)
(3 1.74008e-15 0)
(3 2.0768e-15 0)
(3 1.13657e-16 0)
(3 9.35754e-17 0)
(3 5.9469e-16 0)
(3 5.61614e-16 0)
(3 -3.15922e-16 0)
(3 -6.20048e-16 0)
(3 -7.15988e-16 0)
(3 -6.35754e-16 0)
(3 -4.42143e-16 0)
(3 -5.79489e-17 0)
(3 -1.20726e-16 0)
(3 1.8719e-16 0)
(3 3.5104e-16 0)
(3 6.47895e-16 0)
(3 8.60333e-16 0)
(3 1.11313e-15 0)
(3 9.67315e-16 0)
(3 6.9811e-16 0)
(3 3.37662e-16 0)
(3 -2.11167e-16 0)
(3 -7.16964e-16 0)
(3 3.79128e-16 0)
(3 1.34329e-15 0)
(3 1.80847e-15 0)
(3 3.61719e-16 0)
(3 -2.77652e-16 0)
(3 -7.45037e-16 0)
(3 -3.34547e-16 0)
(3 3.604e-16 0)
(3 5.82356e-16 0)
(3 4.3535e-16 0)
(3 -1.3138e-16 0)
(3 -7.18703e-16 0)
(3 -8.77719e-16 0)
(3 -9.90224e-16 0)
(3 -7.46996e-16 0)
(3 4.03391e-16 0)
(3 1.49578e-15 0)
(3 1.98772e-15 0)
(3 2.68675e-15 0)
(3 2.49375e-15 0)
(3 2.0857e-15 0)
(3 1.20703e-15 0)
(3 5.69355e-16 0)
(3 3.12956e-16 0)
(3 2.18156e-16 0)
(3 6.31671e-16 0)
(3 9.11489e-16 0)
(3 -9.28379e-17 0)
(3 -5.84981e-16 0)
(3 -9.50901e-16 0)
(3 -8.68871e-16 0)
(3 -7.90467e-17 0)
(3 2.41091e-16 0)
(3 2.56442e-16 0)
(3 -1.99921e-16 0)
(3 -3.24022e-16 0)
(3 -8.03498e-16 0)
(3 -9.16335e-16 0)
(3 -6.0469e-16 0)
(3 -1.19556e-16 0)
(3 4.31511e-16 0)
(3 1.06456e-15 0)
(3 1.58692e-15 0)
(3 1.23833e-15 0)
(3 1.45465e-15 0)
(3 7.51981e-16 0)
(3 8.73993e-17 0)
(3 4.91168e-16 0)
(3 5.15767e-16 0)
(3 4.94255e-16 0)
(3 3.65811e-16 0)
(3 -1.12506e-16 0)
(3 -6.19842e-17 0)
(3 -4.22206e-16 0)
(3 -6.62058e-16 0)
(3 -7.39811e-16 0)
(3 -4.32822e-16 0)
(3 -2.24412e-16 0)
(3 2.66632e-16 0)
(3 9.13744e-16 0)
(3 8.53381e-16 0)
(3 9.26177e-16 0)
(3 7.16994e-16 0)
(3 2.32172e-16 0)
(3 3.81718e-17 0)
(3 1.16566e-16 0)
(3 -4.49066e-16 0)
(3 -5.39713e-16 0)
(3 -4.93769e-16 0)
(3 -6.76818e-16 0)
(3 -7.42634e-16 0)
(3 6.77169e-16 0)
(3 1.26414e-15 0)
(3 9.8369e-16 0)
(3 1.33958e-15 0)
(3 4.5706e-17 0)
(3 1.93513e-16 0)
(3 1.43015e-16 0)
(3 1.60507e-17 0)
(3 -2.25697e-16 0)
(3 -1.80161e-16 0)
(3 8.58769e-17 0)
(3 6.25284e-16 0)
(3 1.41407e-15 0)
(3 1.58716e-15 0)
(3 1.52729e-15 0)
(3 1.01392e-15 0)
(3 3.52959e-16 0)
(3 -4.20972e-16 0)
(3 -1.26269e-15 0)
(3 -1.52481e-15 0)
(3 -1.28973e-15 0)
(3 -1.55919e-15 0)
(3 -1.47947e-15 0)
(3 -5.44427e-16 0)
(3 -2.48014e-16 0)
(3 -1.03262e-16 0)
(3 3.22069e-16 0)
(3 1.22381e-15 0)
(3 1.22853e-16 0)
(3 1.69926e-16 0)
(3 7.88888e-16 0)
(3 9.38747e-16 0)
(3 8.18249e-16 0)
(3 3.94475e-16 0)
(3 3.11442e-16 0)
(3 2.59429e-16 0)
(3 3.21641e-17 0)
(3 2.46336e-17 0)
(3 3.30859e-16 0)
(3 1.2024e-15 0)
(3 1.07567e-15 0)
(3 8.84782e-16 0)
(3 7.95149e-16 0)
(3 3.34922e-17 0)
(3 -1.70398e-16 0)
(3 -5.05589e-16 0)
(3 -1.13404e-15 0)
(3 -1.25202e-15 0)
(3 -1.36898e-15 0)
(3 -1.08468e-15 0)
(3 -3.36055e-16 0)
(3 -5.6512e-17 0)
(3 -3.2652e-18 0)
(3 1.49966e-16 0)
(3 -2.14367e-16 0)
(3 -6.06356e-17 0)
(3 3.83769e-16 0)
(3 3.15463e-16 0)
(3 -2.7226e-16 0)
(3 -7.57086e-16 0)
(3 -1.12257e-15 0)
(3 -1.04325e-15 0)
(3 -2.76819e-16 0)
(3 1.66584e-16 0)
(3 -4.74694e-16 0)
(3 -3.97036e-16 0)
(3 2.94789e-16 0)
(3 2.81727e-16 0)
(3 -9.98824e-17 0)
(3 9.37167e-17 0)
(3 -3.43224e-16 0)
(3 -1.13516e-15 0)
(3 -1.75095e-17 0)
(3 -8.07441e-17 0)
(3 -5.67895e-16 0)
(3 -1.0223e-15 0)
(3 -1.19488e-16 0)
(3 -2.31005e-16 0)
(3 -5.66979e-16 0)
(3 -3.25098e-16 0)
(3 5.74022e-16 0)
(3 2.78622e-16 0)
(3 -5.99192e-16 0)
(3 -7.8439e-16 0)
(3 -8.89321e-16 0)
(3 -1.38268e-15 0)
(3 -1.56246e-15 0)
(3 -2.73321e-15 0)
(3 -2.60868e-15 0)
(3 -2.35014e-15 0)
(3 -1.95948e-15 0)
(3 -1.55406e-15 0)
(3 -1.51425e-15 0)
(3 -7.63777e-16 0)
(3 3.44157e-16 0)
(3 7.7812e-16 0)
(3 8.75783e-16 0)
(3 1.16944e-16 0)
(3 -4.64827e-16 0)
(3 -4.53369e-16 0)
(3 -2.65572e-17 0)
(3 -9.99523e-17 0)
(3 2.04798e-16 0)
(3 4.12612e-16 0)
(3 4.53271e-16 0)
(3 8.46617e-16 0)
(3 7.44416e-16 0)
(3 7.83081e-16 0)
(3 -4.07516e-16 0)
(3 -1.55501e-15 0)
(3 -1.65277e-15 0)
(3 -1.80333e-15 0)
(3 -1.42264e-15 0)
(3 -9.48576e-16 0)
(3 -2.67155e-16 0)
(3 -1.31001e-16 0)
(3 -1.8874e-16 0)
(3 -7.08812e-16 0)
(3 -1.00185e-15 0)
(3 -8.46954e-16 0)
(3 -3.30671e-16 0)
(3 9.96768e-16 0)
(3 1.60053e-15 0)
(3 8.47338e-16 0)
(3 -5.3815e-17 0)
(3 4.47973e-16 0)
(3 5.78323e-16 0)
(3 4.13008e-17 0)
(3 -6.11196e-16 0)
(3 -3.70167e-16 0)
(3 6.83759e-16 0)
(3 7.24199e-16 0)
(3 5.27313e-16 0)
(3 5.99123e-17 0)
(3 -7.92175e-16 0)
(3 7.69642e-17 0)
(3 8.12067e-16 0)
(3 1.12117e-15 0)
(3 1.18973e-15 0)
(3 1.07213e-15 0)
(3 1.03516e-15 0)
(3 2.60367e-16 0)
(3 -6.26043e-16 0)
(3 -1.63067e-17 0)
(3 7.34473e-16 0)
(3 1.37932e-15 0)
(3 1.67627e-15 0)
(3 2.997e-16 0)
(3 -9.28907e-17 0)
(3 2.5944e-16 0)
(3 7.51619e-17 0)
(3 -5.18225e-16 0)
(3 -7.59957e-16 0)
(3 -6.12358e-16 0)
(3 -3.16357e-16 0)
(3 -2.67555e-16 0)
(3 -2.36549e-16 0)
(3 -1.11644e-16 0)
(3 -3.71992e-16 0)
(3 4.34002e-16 0)
(3 9.5637e-16 0)
(3 6.62087e-16 0)
(3 -1.78797e-17 0)
(3 2.08488e-16 0)
(3 5.19543e-16 0)
(3 8.14871e-16 0)
(3 1.40936e-15 0)
(3 1.98573e-15 0)
(3 1.31948e-15 0)
(3 8.79687e-16 0)
(3 7.94588e-17 0)
(3 -1.99038e-16 0)
(3 -1.85012e-17 0)
(3 -4.21096e-16 0)
(3 -5.10669e-16 0)
(3 -6.27998e-16 0)
(3 -6.11661e-16 0)
(3 -1.17298e-16 0)
(3 -3.68821e-16 0)
(3 -1.03506e-15 0)
(3 -1.13005e-15 0)
(3 -1.00842e-15 0)
(3 2.42971e-17 0)
(3 9.17803e-17 0)
(3 -4.62687e-17 0)
(3 -5.24829e-16 0)
(3 -1.0958e-15 0)
(3 -1.85544e-15 0)
(3 -1.82576e-15 0)
(3 -1.40184e-15 0)
(3 4.32639e-16 0)
(3 1.26433e-15 0)
(3 5.15875e-16 0)
(3 -1.30043e-16 0)
(3 -4.98726e-16 0)
(3 -3.84611e-16 0)
(3 -1.86577e-16 0)
(3 -5.35711e-16 0)
(3 -1.1127e-15 0)
(3 -1.06385e-15 0)
(3 -1.03727e-15 0)
(3 -1.21104e-15 0)
(3 -4.93594e-16 0)
(3 -2.45358e-16 0)
(3 6.51996e-16 0)
(3 6.38103e-16 0)
(3 5.14664e-16 0)
(3 -1.53231e-16 0)
(3 -9.93105e-16 0)
(3 -1.54929e-15 0)
(3 -1.79197e-15 0)
(3 -1.78219e-15 0)
(3 -1.97224e-15 0)
(3 -9.64534e-16 0)
(3 1.66879e-15 0)
(3 2.65491e-15 0)
(3 2.23627e-15 0)
(3 7.49382e-16 0)
(3 3.50841e-17 0)
(3 -9.03888e-16 0)
(3 -2.40408e-18 0)
(3 -1.33175e-16 0)
(3 -6.45068e-17 0)
(3 1.74555e-18 0)
(3 -8.62776e-17 0)
(3 -8.30013e-16 0)
(3 -6.33753e-16 0)
(3 -5.91855e-17 0)
(3 3.79448e-16 0)
(3 5.23027e-16 0)
(3 -8.09271e-17 0)
(3 -6.52536e-16 0)
(3 -8.99566e-16 0)
(3 -1.38513e-15 0)
(3 -1.36772e-15 0)
(3 -5.50448e-16 0)
(3 3.1921e-16 0)
(3 1.54892e-15 0)
(3 2.10444e-15 0)
(3 3.11733e-15 0)
(3 3.33522e-15 0)
(3 2.51914e-15 0)
(3 1.62072e-15 0)
(3 7.89303e-16 0)
(3 1.00247e-16 0)
(3 5.36003e-17 0)
(3 7.80899e-16 0)
(3 1.33598e-15 0)
(3 1.26266e-15 0)
(3 1.04407e-15 0)
(3 4.77176e-16 0)
(3 5.1366e-16 0)
(3 5.9087e-16 0)
(3 3.70582e-16 0)
(3 -4.48674e-16 0)
(3 -5.05804e-16 0)
(3 -1.65118e-16 0)
(3 -6.29654e-18 0)
(3 3.25515e-16 0)
(3 7.58164e-16 0)
(3 8.25397e-16 0)
(3 1.08353e-15 0)
(3 2.52138e-16 0)
(3 -7.10909e-16 0)
(3 -4.18042e-16 0)
(3 1.07194e-16 0)
(3 1.83958e-16 0)
(3 6.48716e-16 0)
(3 7.19692e-18 0)
(3 7.63422e-17 0)
(3 3.74004e-16 0)
(3 4.17431e-16 0)
(3 1.66893e-16 0)
(3 2.32277e-16 0)
(3 8.69241e-16 0)
(3 8.17994e-16 0)
(3 7.4104e-16 0)
(3 9.52849e-16 0)
(3 5.32192e-16 0)
(3 -1.46489e-16 0)
(3 -6.76678e-16 0)
(3 -2.47938e-16 0)
(3 1.90591e-16 0)
(3 7.37452e-16 0)
(3 1.30524e-15 0)
(3 7.90003e-16 0)
(3 -1.19102e-15 0)
(3 -3.40118e-15 0)
(3 -3.29206e-15 0)
(3 -1.94563e-15 0)
(3 -4.14302e-17 0)
(3 1.31744e-15 0)
(3 -1.83292e-17 0)
(3 6.35834e-17 0)
(3 -2.37098e-16 0)
(3 -7.68514e-16 0)
(3 -1.12449e-15 0)
(3 -1.22326e-15 0)
(3 -9.2426e-16 0)
(3 -9.8361e-17 0)
(3 -9.59271e-17 0)
(3 -3.53263e-16 0)
(3 -6.02681e-16 0)
(3 -8.18829e-16 0)
(3 -1.01398e-15 0)
(3 -9.19358e-16 0)
(3 -3.99087e-16 0)
(3 1.42448e-16 0)
(3 3.64295e-16 0)
(3 4.81054e-17 0)
(3 -2.06269e-15 0)
(3 -2.73779e-15 0)
(3 -2.83963e-15 0)
(3 -2.12296e-15 0)
(3 -1.33807e-15 0)
(3 -4.11826e-16 0)
(3 4.09482e-17 0)
(3 1.81838e-16 0)
(3 -1.71273e-16 0)
(3 -7.46534e-16 0)
(3 -5.46379e-16 0)
(3 -2.90958e-16 0)
(3 -7.01396e-16 0)
(3 -6.59186e-16 0)
(3 -1.31284e-15 0)
(3 -1.28666e-15 0)
(3 -9.25301e-16 0)
(3 2.72352e-16 0)
(3 1.19195e-15 0)
(3 1.72984e-15 0)
(3 1.71221e-15 0)
(3 1.27793e-15 0)
(3 3.41498e-16 0)
(3 -8.89793e-16 0)
(3 -1.5023e-15 0)
(3 -1.47886e-15 0)
(3 -8.93699e-16 0)
(3 -1.18836e-15 0)
(3 -7.41962e-16 0)
(3 -3.67485e-16 0)
(3 -6.04934e-17 0)
(3 -1.90713e-16 0)
(3 -1.26171e-16 0)
(3 3.02782e-16 0)
(3 2.43648e-16 0)
(3 9.91249e-16 0)
(3 9.4951e-16 0)
(3 2.39861e-16 0)
(3 -5.89018e-16 0)
(3 -2.76089e-16 0)
(3 4.01928e-16 0)
(3 1.24862e-15 0)
(3 2.49839e-15 0)
(3 3.97997e-15 0)
(3 3.37608e-15 0)
(3 1.91833e-15 0)
(3 1.85526e-16 0)
(3 -9.13677e-16 0)
(3 -3.05404e-16 0)
(3 2.86885e-16 0)
(3 -1.01398e-16 0)
(3 -3.43886e-16 0)
(3 -1.45568e-16 0)
(3 -2.7872e-16 0)
(3 -3.29281e-17 0)
(3 -1.85945e-16 0)
(3 -2.9243e-18 0)
(3 5.12681e-16 0)
(3 6.13029e-16 0)
(3 4.68782e-16 0)
(3 7.59197e-16 0)
(3 5.46377e-16 0)
(3 1.19923e-16 0)
(3 9.1271e-17 0)
(3 8.61466e-16 0)
(3 1.62141e-15 0)
(3 1.80272e-15 0)
(3 1.55699e-15 0)
(3 1.05022e-15 0)
(3 -4.79702e-16 0)
(3 -1.01953e-15 0)
(3 -1.15239e-15 0)
(3 -6.03439e-16 0)
(3 1.74537e-16 0)
(3 -5.3185e-16 0)
(3 -1.25931e-15 0)
(3 -1.45527e-15 0)
(3 -1.67977e-15 0)
(3 1.63808e-16 0)
(3 1.78908e-16 0)
(3 2.29151e-16 0)
(3 4.2494e-16 0)
(3 7.94885e-16 0)
(3 6.35482e-16 0)
(3 7.02628e-17 0)
(3 2.36243e-16 0)
(3 6.14709e-16 0)
(3 8.19532e-16 0)
(3 1.21867e-15 0)
(3 7.43266e-16 0)
(3 -7.28576e-16 0)
(3 -2.30795e-15 0)
(3 -2.14189e-15 0)
(3 -2.06079e-15 0)
(3 -2.19101e-15 0)
(3 -1.85795e-15 0)
(3 -1.39903e-15 0)
(3 -5.31636e-16 0)
(3 -7.9924e-16 0)
(3 -1.06173e-15 0)
(3 -8.751e-16 0)
(3 2.41242e-16 0)
(3 9.12618e-18 0)
(3 3.57105e-17 0)
(3 2.47276e-16 0)
(3 -2.57145e-16 0)
(3 -2.14943e-16 0)
(3 -3.67287e-16 0)
(3 -8.22771e-16 0)
(3 -6.4876e-17 0)
(3 2.96812e-16 0)
(3 3.99252e-16 0)
(3 1.17767e-16 0)
(3 -1.27565e-15 0)
(3 -2.34601e-15 0)
(3 -2.86981e-15 0)
(3 -3.16458e-15 0)
(3 -3.36684e-15 0)
(3 -3.09688e-15 0)
(3 -2.35021e-15 0)
(3 -1.64185e-15 0)
(3 -6.18719e-16 0)
(3 -1.12958e-18 0)
(3 2.36181e-16 0)
(3 -3.2389e-17 0)
(3 7.00708e-16 0)
(3 -2.7382e-17 0)
(3 1.28277e-16 0)
(3 1.16684e-16 0)
(3 -2.15071e-16 0)
(3 -4.60497e-16 0)
(3 -7.24226e-16 0)
(3 -8.72118e-16 0)
(3 -1.05584e-16 0)
(3 3.09805e-16 0)
(3 -8.19976e-17 0)
(3 -8.60733e-16 0)
(3 -1.10062e-15 0)
(3 -1.08471e-15 0)
(3 -1.32034e-15 0)
(3 -1.95055e-15 0)
(3 -2.11438e-15 0)
(3 -1.82607e-15 0)
(3 -1.64762e-15 0)
(3 -5.86613e-16 0)
(3 -2.58352e-16 0)
(3 -1.80774e-16 0)
(3 2.90682e-17 0)
(3 1.24968e-16 0)
(3 -1.57121e-16 0)
(3 2.43259e-17 0)
(3 3.28188e-16 0)
(3 5.61888e-17 0)
(3 7.88899e-17 0)
(3 -1.21583e-16 0)
(3 3.57644e-18 0)
(3 -7.81655e-18 0)
(3 -6.56857e-16 0)
(3 -1.02889e-16 0)
(3 -3.11011e-17 0)
(3 -2.946e-16 0)
(3 -2.27927e-16 0)
(3 -2.49715e-16 0)
(3 -5.374e-16 0)
(3 -1.00169e-15 0)
(3 -3.68281e-16 0)
(3 1.89719e-17 0)
(3 4.40615e-16 0)
(3 1.24049e-15 0)
(3 1.1329e-15 0)
(3 1.06521e-15 0)
(3 1.12757e-15 0)
(3 1.40045e-15 0)
(3 1.71651e-15 0)
(3 1.3015e-16 0)
(3 8.67234e-17 0)
(3 -1.14633e-16 0)
(3 -5.10604e-17 0)
(3 2.71336e-17 0)
(3 1.79632e-16 0)
(3 2.99153e-16 0)
(3 -4.28784e-16 0)
(3 -7.74851e-16 0)
(3 -5.77786e-16 0)
(3 -3.39564e-16 0)
(3 7.08898e-16 0)
(3 3.97023e-16 0)
(3 6.93157e-16 0)
(3 1.07328e-15 0)
(3 1.61814e-15 0)
(3 2.33839e-15 0)
(3 1.9312e-15 0)
(3 1.44688e-15 0)
(3 9.83563e-16 0)
(3 1.59084e-15 0)
(3 2.02706e-15 0)
(3 1.53269e-15 0)
(3 1.2733e-15 0)
(3 -7.56265e-17 0)
(3 -3.99056e-16 0)
(3 -4.84151e-16 0)
(3 -3.31239e-16 0)
(3 2.21404e-16 0)
(3 1.04889e-15 0)
(3 1.37252e-15 0)
(3 1.55181e-15 0)
(3 1.2175e-15 0)
(3 -1.38338e-16 0)
(3 1.88703e-17 0)
(3 7.91983e-16 0)
(3 1.12855e-15 0)
(3 2.26365e-15 0)
(3 2.67672e-15 0)
(3 2.79684e-15 0)
(3 1.53994e-15 0)
(3 1.02191e-15 0)
(3 -6.13677e-17 0)
(3 -3.14754e-16 0)
(3 -1.30136e-16 0)
(3 3.13467e-16 0)
(3 6.12096e-16 0)
(3 3.80147e-16 0)
(3 -1.08621e-16 0)
(3 -2.17195e-16 0)
(3 -2.71449e-16 0)
(3 -5.03471e-17 0)
(3 1.82849e-16 0)
(3 8.62984e-16 0)
(3 7.53955e-16 0)
(3 1.45215e-15 0)
(3 1.37156e-15 0)
(3 7.0705e-16 0)
(3 1.92595e-16 0)
(3 4.06538e-16 0)
(3 7.74726e-16 0)
(3 1.29686e-15 0)
(3 1.38973e-15 0)
(3 1.13137e-15 0)
(3 5.02497e-16 0)
(3 4.12223e-16 0)
(3 4.17394e-16 0)
(3 -5.52753e-16 0)
(3 -5.62613e-16 0)
(3 -1.76786e-16 0)
(3 3.55478e-16 0)
(3 4.99066e-17 0)
(2.93211 0.0204592 0)
(2.85355 0.0412959 0)
(2.74611 0.179121 0)
(2.68453 0.221528 0)
(2.56872 0.356826 0)
(2.50178 0.445686 0)
(2.42502 0.541731 0)
(2.34824 0.62602 0)
(2.31331 0.725564 0)
(2.26033 0.798022 0)
(2.24876 0.855308 0)
(2.2797 0.885473 0)
(2.32521 0.891117 0)
(2.33973 0.886972 0)
(2.34736 0.878187 0)
(2.34769 0.870203 0)
(2.34638 0.85662 0)
(2.34758 0.848954 0)
(2.34559 0.84743 0)
(2.33989 0.847378 0)
(2.33723 0.847786 0)
(2.33727 0.848937 0)
(2.34063 0.849718 0)
(2.34142 0.849262 0)
(2.99884 0.00117704 0)
(2.99078 0.010586 0)
(2.9577 0.0522942 0)
(2.90497 0.131706 0)
(2.80048 0.277254 0)
(2.68214 0.462355 0)
(2.53761 0.681131 0)
(2.36838 0.909746 0)
(2.23675 1.06102 0)
(2.17536 1.10182 0)
(2.13701 1.04832 0)
(2.18423 1.00232 0)
(2.26018 0.944013 0)
(2.29429 0.899007 0)
(2.32627 0.860024 0)
(2.34875 0.834926 0)
(2.35297 0.832959 0)
(2.36041 0.835447 0)
(2.35844 0.837947 0)
(2.35179 0.841946 0)
(2.34723 0.844491 0)
(2.34396 0.845885 0)
(2.34342 0.847559 0)
(2.343 0.846795 0)
(3 -5.18075e-08 0)
(3.00002 -3.5005e-05 0)
(2.9999 0.00013098 0)
(2.99991 0.000129914 0)
(2.9986 0.00187525 0)
(2.99143 0.0127748 0)
(2.9664 0.0516221 0)
(2.8934 0.18173 0)
(2.79277 0.392078 0)
(2.57962 0.713465 0)
(2.4405 0.857331 0)
(2.34061 0.929734 0)
(2.29904 0.915818 0)
(2.29793 0.898247 0)
(2.30805 0.886737 0)
(2.33709 0.87371 0)
(2.35186 0.863861 0)
(2.35744 0.853012 0)
(2.36262 0.843084 0)
(2.36092 0.842467 0)
(2.35701 0.844299 0)
(2.3517 0.848229 0)
(2.34829 0.850762 0)
(2.34569 0.851196 0)
(3 -1.05699e-08 0)
(3 -1.33927e-06 0)
(3 -1.19905e-06 0)
(3 -5.61556e-07 0)
(3 -8.07649e-06 0)
(2.99999 2.16196e-05 0)
(3.00007 -0.000149375 0)
(2.99917 0.00144005 0)
(2.99156 0.0158059 0)
(2.89189 0.167077 0)
(2.73144 0.440236 0)
(2.49358 0.734131 0)
(2.3097 0.934826 0)
(2.27365 0.948846 0)
(2.28574 0.935852 0)
(2.30246 0.920065 0)
(2.32112 0.898321 0)
(2.3453 0.870312 0)
(2.36062 0.847068 0)
(2.36524 0.841964 0)
(2.36152 0.842393 0)
(2.35864 0.8436 0)
(2.35349 0.847963 0)
(2.34966 0.854956 0)
(3 -9.59379e-11 0)
(3 2.70712e-09 0)
(3 -3.22637e-08 0)
(3 -5.085e-08 0)
(3 -4.95122e-07 0)
(3 -7.2826e-07 0)
(3 -5.9339e-06 0)
(3 -4.9237e-06 0)
(3.00002 -5.47261e-05 0)
(2.99927 0.000719084 0)
(2.9839 0.0241299 0)
(2.89552 0.142197 0)
(2.58629 0.531177 0)
(2.45377 0.719573 0)
(2.36692 0.842794 0)
(2.29818 0.894886 0)
(2.3001 0.895571 0)
(2.32128 0.879255 0)
(2.3409 0.860809 0)
(2.3535 0.858393 0)
(2.35845 0.844492 0)
(2.35917 0.839278 0)
(2.35805 0.839749 0)
(2.35026 0.84766 0)
(3 1.05855e-12 0)
(3 1.05031e-10 0)
(3 1.55296e-10 0)
(3 -3.33293e-10 0)
(3 2.82092e-10 0)
(3 -4.31482e-08 0)
(3 -9.479e-08 0)
(3 -3.42114e-07 0)
(3 -6.35221e-06 0)
(3 -6.12578e-06 0)
(3.00002 -5.03184e-05 0)
(2.99885 0.00154131 0)
(2.96477 0.0441248 0)
(2.85962 0.194719 0)
(2.5246 0.605202 0)
(2.34155 0.814176 0)
(2.31926 0.847658 0)
(2.31254 0.871312 0)
(2.31501 0.875623 0)
(2.3288 0.866248 0)
(2.34046 0.850482 0)
(2.34839 0.834981 0)
(2.35172 0.833145 0)
(2.35098 0.836691 0)
(3 2.59642e-13 0)
(3 2.02836e-13 0)
(3 6.93686e-12 0)
(3 6.28265e-12 0)
(3 1.12053e-11 0)
(3 -4.0351e-10 0)
(3 -1.95408e-10 0)
(3 -4.92496e-10 0)
(3 -1.6861e-08 0)
(3 -3.726e-07 0)
(3 -4.86943e-06 0)
(3.00001 -1.47797e-05 0)
(2.99997 4.9967e-05 0)
(2.99712 0.00428702 0)
(2.92625 0.0914712 0)
(2.76773 0.305652 0)
(2.47196 0.660304 0)
(2.28792 0.891321 0)
(2.28997 0.866728 0)
(2.30922 0.857647 0)
(2.31315 0.85638 0)
(2.32448 0.848691 0)
(2.33612 0.840534 0)
(2.34092 0.840325 0)
(3 3.84611e-15 0)
(3 2.29011e-15 0)
(3 2.00579e-15 0)
(3 6.06426e-13 0)
(3 2.46984e-12 0)
(3 5.29122e-12 0)
(3 7.34499e-12 0)
(3 6.42397e-12 0)
(3 1.66946e-10 0)
(3 -6.93095e-10 0)
(3 -3.06878e-08 0)
(3 -1.38792e-06 0)
(3 -1.21961e-06 0)
(3.00001 -1.9673e-05 0)
(2.9994 0.000932934 0)
(2.98947 0.0171622 0)
(2.86245 0.175125 0)
(2.61234 0.496536 0)
(2.47157 0.687416 0)
(2.31735 0.865527 0)
(2.28628 0.874744 0)
(2.29722 0.863327 0)
(2.31615 0.848771 0)
(2.32278 0.84344 0)
(3 1.95442e-15 0)
(3 1.7473e-15 0)
(3 1.26791e-15 0)
(3 3.52321e-15 0)
(3 7.08475e-14 0)
(3 6.39325e-13 0)
(3 2.08199e-12 0)
(3 2.57487e-12 0)
(3 1.98581e-11 0)
(3 1.93035e-11 0)
(3 2.73027e-10 0)
(3 -6.64022e-09 0)
(3 -9.71066e-08 0)
(3 -3.36648e-06 0)
(3 -2.41492e-06 0)
(3 -2.09436e-05 0)
(2.99649 0.00538091 0)
(2.95752 0.0608533 0)
(2.77772 0.316412 0)
(2.45952 0.705408 0)
(2.40106 0.773987 0)
(2.3413 0.824481 0)
(2.32508 0.837836 0)
(2.32282 0.837002 0)
(3 1.82816e-15 0)
(3 1.79227e-15 0)
(3 9.60055e-16 0)
(3 -6.15976e-16 0)
(3 -2.12998e-15 0)
(3 2.78017e-15 0)
(3 6.41756e-14 0)
(3 2.00098e-13 0)
(3 8.30094e-13 0)
(3 2.98662e-12 0)
(3 4.29724e-11 0)
(3 6.16831e-11 0)
(3 -5.34141e-10 0)
(3 -5.93748e-08 0)
(3 -4.99727e-07 0)
(3 -1.52875e-06 0)
(3.00001 -1.78796e-05 0)
(2.99964 0.000703759 0)
(2.98512 0.0217094 0)
(2.84774 0.206967 0)
(2.68434 0.487209 0)
(2.36587 0.838982 0)
(2.30712 0.867044 0)
(2.31662 0.831952 0)
(3 3.1751e-16 0)
(3 4.74816e-16 0)
(3 3.80614e-16 0)
(3 -5.71809e-16 0)
(3 -1.63774e-15 0)
(3 -1.64933e-15 0)
(3 -6.05101e-16 0)
(3 4.40958e-15 0)
(3 2.96805e-15 0)
(3 3.07217e-14 0)
(3 1.03017e-12 0)
(3 1.19899e-11 0)
(3 8.80148e-12 0)
(3 2.69535e-10 0)
(3 -9.27657e-09 0)
(3 -8.24036e-08 0)
(3 -2.36629e-06 0)
(3 -4.31943e-06 0)
(2.99994 8.05095e-05 0)
(2.99425 0.010169 0)
(2.94787 0.0935446 0)
(2.66729 0.46527 0)
(2.51156 0.679588 0)
(2.36451 0.809864 0)
(3 -1.06326e-15 0)
(3 -8.81065e-16 0)
(3 -5.80835e-16 0)
(3 -1.32043e-15 0)
(3 -1.46139e-15 0)
(3 -1.40099e-15 0)
(3 -1.29547e-15 0)
(3 6.61135e-16 0)
(3 7.16672e-16 0)
(3 -2.28798e-17 0)
(3 -3.69653e-16 0)
(3 8.99428e-14 0)
(3 1.49384e-12 0)
(3 1.84644e-11 0)
(3 7.95957e-11 0)
(3 -1.88562e-10 0)
(3 -3.27093e-08 0)
(3 -9.01204e-07 0)
(3 -1.3509e-06 0)
(2.99999 6.34515e-06 0)
(2.99835 0.00307844 0)
(2.95257 0.0718028 0)
(2.82438 0.308043 0)
(2.48753 0.720523 0)
(3 -8.97661e-16 0)
(3 -1.68334e-15 0)
(3 -1.65871e-15 0)
(3 -1.69203e-15 0)
(3 -1.60806e-15 0)
(3 -1.562e-15 0)
(3 -9.17372e-16 0)
(3 -2.6151e-16 0)
(3 -7.33522e-16 0)
(3 -1.46145e-15 0)
(3 -2.36229e-15 0)
(3 -1.25136e-15 0)
(3 8.03327e-15 0)
(3 6.65945e-13 0)
(3 9.17932e-12 0)
(3 1.36779e-11 0)
(3 6.64939e-11 0)
(3 -1.67928e-08 0)
(3 -3.96762e-07 0)
(3 -5.81373e-07 0)
(3 -3.38019e-06 0)
(2.99905 0.00187277 0)
(2.98153 0.0377987 0)
(2.8673 0.223 0)
(3 -4.45393e-16 0)
(3 -5.5403e-16 0)
(3 -4.50446e-16 0)
(3 -9.8665e-16 0)
(3 -9.4644e-16 0)
(3 -7.83151e-16 0)
(3 -3.0184e-16 0)
(3 -3.09136e-16 0)
(3 -9.87546e-16 0)
(3 -6.06727e-16 0)
(3 1.21347e-15 0)
(3 1.49035e-15 0)
(3 1.5099e-15 0)
(3 3.57168e-16 0)
(3 4.3399e-13 0)
(3 4.5466e-12 0)
(3 1.7328e-11 0)
(3 -3.66841e-11 0)
(3 -2.09692e-08 0)
(3 -1.38371e-07 0)
(3 -3.88843e-07 0)
(3 -1.91619e-06 0)
(2.99971 0.000563025 0)
(2.99161 0.0172029 0)
(3 7.85949e-17 0)
(3 1.13756e-16 0)
(3 -3.37911e-17 0)
(3 3.93015e-18 0)
(3 5.82232e-18 0)
(3 -2.37469e-16 0)
(3 -4.78818e-16 0)
(3 -1.284e-15 0)
(3 -2.09716e-15 0)
(3 -1.54455e-15 0)
(3 5.93586e-16 0)
(3 1.61355e-15 0)
(3 8.27246e-16 0)
(3 -4.56424e-16 0)
(3 1.49528e-15 0)
(3 2.96443e-13 0)
(3 2.57506e-12 0)
(3 2.60097e-12 0)
(3 -1.48236e-10 0)
(3 -1.2726e-08 0)
(3 -6.91425e-08 0)
(3 -3.39836e-07 0)
(3 -2.10263e-07 0)
(2.99999 -3.56194e-05 0)
(3 -2.52964e-16 0)
(3 -6.67695e-16 0)
(3 -8.65763e-16 0)
(3 -3.70954e-16 0)
(3 -4.90048e-16 0)
(3 -2.45148e-16 0)
(3 -4.56257e-16 0)
(3 -9.7862e-16 0)
(3 -1.01443e-15 0)
(3 -7.50936e-16 0)
(3 -3.38568e-16 0)
(3 1.49361e-16 0)
(3 -6.29916e-16 0)
(3 -7.60564e-16 0)
(3 -9.00189e-16 0)
(3 4.38182e-15 0)
(3 7.53031e-14 0)
(3 8.51609e-13 0)
(3 5.12685e-13 0)
(3 -3.11365e-10 0)
(3 -1.89875e-09 0)
(3 -1.30907e-08 0)
(3 -1.02505e-06 0)
(3 3.13423e-07 0)
(3 -1.07905e-15 0)
(3 -1.40404e-15 0)
(3 -1.09471e-15 0)
(3 -1.07814e-15 0)
(3 -1.24331e-15 0)
(3 -8.13468e-16 0)
(3 -8.01862e-16 0)
(3 -6.53205e-16 0)
(3 -3.31514e-16 0)
(3 5.04402e-16 0)
(3 1.00138e-15 0)
(3 7.77972e-16 0)
(3 -4.08071e-16 0)
(3 -8.09368e-16 0)
(3 -4.93144e-16 0)
(3 -4.09887e-15 0)
(3 -9.16239e-14 0)
(3 -8.99257e-13 0)
(3 -3.08445e-13 0)
(3 1.16814e-11 0)
(3 2.97315e-09 0)
(3 1.08629e-07 0)
(3 1.06785e-08 0)
(3 1.94044e-06 0)
(3 -1.63842e-15 0)
(3 -1.61536e-15 0)
(3 -1.68758e-15 0)
(3 -1.78405e-15 0)
(3 -1.55241e-15 0)
(3 -2.11544e-15 0)
(3 -2.01842e-15 0)
(3 -1.76313e-15 0)
(3 -1.88998e-15 0)
(3 -1.28334e-15 0)
(3 2.32528e-16 0)
(3 6.05563e-16 0)
(3 -8.80316e-16 0)
(3 -1.07445e-15 0)
(3 -3.53018e-15 0)
(3 -4.29166e-13 0)
(3 -2.08928e-12 0)
(3 -2.62018e-12 0)
(3 8.73016e-11 0)
(3 9.12836e-09 0)
(3 4.80258e-08 0)
(3 7.13988e-07 0)
(3 -2.34653e-06 0)
(2.99997 -3.84545e-05 0)
(3 -5.47601e-16 0)
(3 -1.66069e-15 0)
(3 -1.97325e-15 0)
(3 -1.12117e-15 0)
(3 -9.15158e-16 0)
(3 -1.94032e-15 0)
(3 -1.36889e-15 0)
(3 -1.09327e-15 0)
(3 -1.24905e-15 0)
(3 -1.22869e-15 0)
(3 -1.6585e-15 0)
(3 -1.91155e-15 0)
(3 -3.05868e-15 0)
(3 -4.14676e-15 0)
(3 -6.08882e-13 0)
(3 -5.96241e-12 0)
(3 -1.22858e-11 0)
(3 3.25064e-11 0)
(3 3.38033e-08 0)
(3 1.23189e-07 0)
(3 2.68608e-07 0)
(3 3.14087e-06 0)
(2.99962 -0.00074658 0)
(2.99273 -0.0160159 0)
(3 8.44976e-16 0)
(3 6.45809e-17 0)
(3 2.12312e-16 0)
(3 5.92898e-16 0)
(3 4.03309e-16 0)
(3 5.64087e-18 0)
(3 -7.69611e-16 0)
(3 -4.92423e-16 0)
(3 -5.4883e-16 0)
(3 -1.25785e-15 0)
(3 -2.32979e-15 0)
(3 -2.11236e-15 0)
(3 -1.05582e-14 0)
(3 -8.08043e-13 0)
(3 -9.49719e-12 0)
(3 -1.83173e-11 0)
(3 -2.68103e-11 0)
(3 1.68929e-08 0)
(3 4.86801e-07 0)
(3 6.92107e-07 0)
(3 -1.40796e-06 0)
(2.99936 -0.00131242 0)
(2.97666 -0.0414651 0)
(2.87859 -0.214626 0)
(3 1.71892e-15 0)
(3 1.78837e-15 0)
(3 1.67668e-15 0)
(3 1.41941e-15 0)
(3 8.09933e-16 0)
(3 -6.39804e-16 0)
(3 -1.25557e-15 0)
(3 -1.46463e-15 0)
(3 -1.24435e-15 0)
(3 -2.66276e-15 0)
(3 -4.78555e-15 0)
(3 -8.81914e-14 0)
(3 -1.58509e-12 0)
(3 -2.22952e-11 0)
(3 -9.50184e-11 0)
(3 2.73891e-10 0)
(3 3.01389e-08 0)
(3 7.96942e-07 0)
(3 1.70868e-06 0)
(2.99999 -6.50599e-06 0)
(2.99818 -0.00344207 0)
(2.96106 -0.0595685 0)
(2.77101 -0.347005 0)
(2.56855 -0.632724 0)
(3 1.03833e-15 0)
(3 1.99846e-15 0)
(3 1.5563e-15 0)
(3 1.1524e-15 0)
(3 1.66757e-15 0)
(3 -2.00742e-16 0)
(3 -6.04271e-16 0)
(3 -4.79385e-15 0)
(3 -4.79202e-15 0)
(3 -2.98869e-14 0)
(3 -1.00598e-12 0)
(3 -1.19979e-11 0)
(3 -8.80114e-12 0)
(3 -2.65842e-10 0)
(3 8.58993e-09 0)
(3 8.66991e-08 0)
(3 2.13059e-06 0)
(3 4.4423e-06 0)
(2.99993 -9.21585e-05 0)
(2.9946 -0.00996848 0)
(2.94403 -0.093837 0)
(2.67188 -0.460877 0)
(2.50356 -0.670187 0)
(2.37829 -0.803396 0)
(3 8.07039e-16 0)
(3 7.28585e-16 0)
(3 1.53971e-15 0)
(3 9.87584e-16 0)
(3 1.8462e-15 0)
(3 -5.31756e-15 0)
(3 -6.62991e-14 0)
(3 -2.03364e-13 0)
(3 -8.23959e-13 0)
(3 -2.91575e-12 0)
(3 -4.3526e-11 0)
(3 -6.05408e-11 0)
(3 5.26715e-10 0)
(3 6.18182e-08 0)
(3 4.75597e-07 0)
(3 1.78504e-06 0)
(3.00001 1.51467e-05 0)
(2.99967 -0.000639336 0)
(2.98413 -0.0234561 0)
(2.85607 -0.195889 0)
(2.66511 -0.498567 0)
(2.3647 -0.841472 0)
(2.31868 -0.855483 0)
(2.32594 -0.833845 0)
(3 -9.91403e-16 0)
(3 -1.78234e-15 0)
(3 -8.69123e-17 0)
(3 -1.7225e-15 0)
(3 -6.98413e-14 0)
(3 -6.40605e-13 0)
(3 -2.08811e-12 0)
(3 -2.58331e-12 0)
(3 -1.97161e-11 0)
(3 -1.8998e-11 0)
(3 -2.76661e-10 0)
(3 6.35479e-09 0)
(3 9.64097e-08 0)
(3 3.3694e-06 0)
(3 2.40889e-06 0)
(3 2.07485e-05 0)
(2.9965 -0.00539436 0)
(2.95751 -0.0606256 0)
(2.77598 -0.317461 0)
(2.46511 -0.696941 0)
(2.39651 -0.782319 0)
(2.33828 -0.827044 0)
(2.32803 -0.835819 0)
(2.32524 -0.835264 0)
(3 -4.76133e-15 0)
(3 -2.26649e-15 0)
(3 -2.30562e-15 0)
(3 -6.07601e-13 0)
(3 -2.49232e-12 0)
(3 -5.31423e-12 0)
(3 -7.35928e-12 0)
(3 -6.44041e-12 0)
(3 -1.67698e-10 0)
(3 7.13976e-10 0)
(3 3.09123e-08 0)
(3 1.37079e-06 0)
(3 1.20961e-06 0)
(3.00001 1.96467e-05 0)
(2.9994 -0.000927597 0)
(2.98946 -0.0172904 0)
(2.86317 -0.174172 0)
(2.61044 -0.498632 0)
(2.47181 -0.686194 0)
(2.32023 -0.863017 0)
(2.28524 -0.876652 0)
(2.2952 -0.864774 0)
(2.3151 -0.848368 0)
(2.32348 -0.841356 0)
(3 -2.56118e-13 0)
(3 -1.99843e-13 0)
(3 -6.91794e-12 0)
(3 -6.29971e-12 0)
(3 -1.12903e-11 0)
(3 4.0357e-10 0)
(3 1.89811e-10 0)
(3 4.79655e-10 0)
(3 1.72405e-08 0)
(3 3.67506e-07 0)
(3 4.97016e-06 0)
(3.00001 1.4713e-05 0)
(2.99997 -5.07044e-05 0)
(2.99712 -0.00427367 0)
(2.92615 -0.0916857 0)
(2.76929 -0.304643 0)
(2.46996 -0.662195 0)
(2.28814 -0.891501 0)
(2.29065 -0.865559 0)
(2.30976 -0.857434 0)
(2.31313 -0.856847 0)
(2.32367 -0.848981 0)
(2.33519 -0.839973 0)
(2.34102 -0.839358 0)
(3 -1.06031e-12 0)
(3 -1.04821e-10 0)
(3 -1.54981e-10 0)
(3 3.31072e-10 0)
(3 -2.85477e-10 0)
(3 4.31791e-08 0)
(3 9.48752e-08 0)
(3 3.4204e-07 0)
(3 6.35165e-06 0)
(3 6.12592e-06 0)
(3.00002 5.04252e-05 0)
(2.99885 -0.001542 0)
(2.96476 -0.0441394 0)
(2.85958 -0.194684 0)
(2.5246 -0.605204 0)
(2.34187 -0.81376 0)
(2.31914 -0.848031 0)
(2.31222 -0.871488 0)
(2.3152 -0.875315 0)
(2.32916 -0.86573 0)
(2.34002 -0.850989 0)
(2.34791 -0.835808 0)
(2.35139 -0.832598 0)
(2.351 -0.836197 0)
(3 9.65607e-11 0)
(3 -2.70218e-09 0)
(3 3.20914e-08 0)
(3 5.07177e-08 0)
(3 4.94929e-07 0)
(3 7.28567e-07 0)
(3 5.93301e-06 0)
(3 4.92172e-06 0)
(3.00002 5.4666e-05 0)
(2.99927 -0.0007184 0)
(2.9839 -0.0241327 0)
(2.89553 -0.142211 0)
(2.58636 -0.531085 0)
(2.45338 -0.719882 0)
(2.36711 -0.842554 0)
(2.2984 -0.894741 0)
(2.30012 -0.895614 0)
(2.32114 -0.879577 0)
(2.34095 -0.860506 0)
(2.35347 -0.858106 0)
(2.35856 -0.844585 0)
(2.35886 -0.83951 0)
(2.3579 -0.839715 0)
(2.35028 -0.847637 0)
(3 1.06273e-08 0)
(3 1.33774e-06 0)
(3 1.19551e-06 0)
(3 5.59901e-07 0)
(3 8.07549e-06 0)
(2.99999 -2.16199e-05 0)
(3.00007 0.000149385 0)
(2.99917 -0.00144011 0)
(2.99156 -0.0158067 0)
(2.8919 -0.167068 0)
(2.73132 -0.440332 0)
(2.49393 -0.733884 0)
(2.30947 -0.93508 0)
(2.2736 -0.94892 0)
(2.28577 -0.935782 0)
(2.30252 -0.919958 0)
(2.32128 -0.898389 0)
(2.3449 -0.870631 0)
(2.36076 -0.846839 0)
(2.36531 -0.841688 0)
(2.36171 -0.842556 0)
(2.35864 -0.843766 0)
(2.35343 -0.847937 0)
(2.3496 -0.854916 0)
(3 5.3526e-08 0)
(3.00002 3.50185e-05 0)
(2.9999 -0.000130993 0)
(2.99991 -0.000129752 0)
(2.9986 -0.00187502 0)
(2.99143 -0.0127742 0)
(2.9664 -0.0516308 0)
(2.89341 -0.181727 0)
(2.79277 -0.392081 0)
(2.57962 -0.713476 0)
(2.44045 -0.857356 0)
(2.34062 -0.929707 0)
(2.29905 -0.91583 0)
(2.29793 -0.898262 0)
(2.30805 -0.886745 0)
(2.3372 -0.873563 0)
(2.35169 -0.864093 0)
(2.35739 -0.852979 0)
(2.36265 -0.843072 0)
(2.361 -0.842378 0)
(2.35706 -0.844281 0)
(2.35173 -0.848359 0)
(2.34826 -0.850769 0)
(2.34565 -0.85115 0)
(2.99884 -0.00117598 0)
(2.99078 -0.0105884 0)
(2.95769 -0.0523005 0)
(2.90498 -0.131702 0)
(2.80047 -0.277253 0)
(2.68215 -0.462334 0)
(2.53758 -0.681152 0)
(2.36839 -0.909749 0)
(2.23678 -1.06102 0)
(2.17535 -1.10182 0)
(2.13697 -1.04832 0)
(2.18422 -1.0023 0)
(2.26022 -0.943985 0)
(2.29428 -0.899019 0)
(2.32625 -0.860068 0)
(2.34874 -0.834869 0)
(2.35297 -0.832981 0)
(2.36043 -0.83546 0)
(2.35843 -0.837956 0)
(2.35181 -0.841925 0)
(2.34724 -0.844504 0)
(2.34396 -0.845935 0)
(2.34341 -0.847555 0)
(2.343 -0.846789 0)
(2.93211 -0.0204171 0)
(2.85354 -0.0413341 0)
(2.7461 -0.17916 0)
(2.68456 -0.221485 0)
(2.56871 -0.356816 0)
(2.50179 -0.445697 0)
(2.42501 -0.541744 0)
(2.34824 -0.626021 0)
(2.31332 -0.725565 0)
(2.26034 -0.798028 0)
(2.24875 -0.85531 0)
(2.27968 -0.885473 0)
(2.32521 -0.891069 0)
(2.33975 -0.886955 0)
(2.34735 -0.878206 0)