/*--------------------------------*- C++ -*----------------------------------*\
  =========                 |
  \\      /  F ield         | OpenFOAM: The Open Source CFD Toolbox
   \\    /   O peration     | Website:  https://openfoam.org
    \\  /    A nd           | Version:  7
     \\/     M anipulation  |
\*---------------------------------------------------------------------------*/
FoamFile
{
    version     2.0;
    format      ascii;
    class       volScalarField;
    location    "0.8";
    object      p;
}
// * * * * * * * * * * * * * * * * * * * * * * * * * * * * * * * * * * * * * //

dimensions      [1 -1 -2 0 0 0 0];

internalField   nonuniform List<scalar> 
18432
(
1
1
1
1
1
1
1
1
1
1
1
1
1
1
1
1
1
1
1
1
1
1
1
1
1
1
1
1
1
1
1
1
1
1
1
1
1
1
1
1
1
1
1
1
1
1
1
1
1
1
1
1
1
1
1
1
1
1
1
1
1
1
1
1
1
1
1
1
1
1
1
1
1
1
1
1
1
1
1
1
1
1
1
1
1
1
1
1
1
1
1
1
1
1
1
1
1
1
1
1
1
1
1
1
1
1
1
1
1
1
1
1
1
1
1
1
1
1
1
1
1
1
1
1
1
1
1
1
1
1
1
1
1
1
1
1
1
1
1
1
1
1
1
1
1
1
1
1
1
1
1
1
1
1
1
1
1
1
1
1
1
1
1
1
1
1
1
1
1
1
1
1
1
1
1
1
1
1
1
1
1
1
1
1
1
1
1
1
1
1
1
1
1
1
1
1
1
1
1
1
1
1
1
1
1
1
1
1
1
1
1
1
1
1
1
1
1
1
1
1
1
1
1
1
1
1
1
1
1
1
1
1
1
1
1
1
1
1
1
1
1
1
1
1
1
1
1
1
1
1
1
1
1
1
1
1
1
1
1
1
1
1
1
1
1
1
1
1
1
1
1
1
1
1
1
1
1
1
1
1
1
1
1
1
1
1
1
1
1
1
1
1
1
1
1
1
1
1
1
1
1
1
1
1
1
1
1
1
1
1
1
1
1
1
1
1
1
1
1
1
1
1
1
1
1
1
1
1
1
1
1
1
1
1
1
1
1
1
1
1
1
1
1
1
1
1
1
1
1
1
1
1
1
1
1
1
1
1
1
1
1
1
1
1
1
1
1
1
1
1
1
1
1
1
1
1
1
1
1
1
1
1
1
1
1
1
1
1
1
1
1
1
1
1
1
1
1
1
1
1
1
1
1
1
1
1
1
1
1
1
1
1
1
1
1
1
1
1
1
1
1
1
1
1
1
1
1
1
1
1
1
1
1
1
1
1
1
1
1
1
1
1
1
1
1
1
1
1
1
1
1
1
1
1
1
1
1
1
1
1
1
1
1
1
1
1
1
1
1
1
1
1
1
1
1
1
1
1
1
1
1
1
1
1
1
1
1
1
1
1
1
1
1
1
1
1
1
1
1
1
1
1
1
1
1
1
1
1
1
1
1
1
1
1
1
1
1
1
1
1
1
1
1
1
1
1
1
1
1
1
1
1
1
1
1
1
1
1
1
1
1
1
1
1
1
1
1
1
1
1
1
1
1
1
1
1
1
1
1
1
1
1
1
1
1
1
1
1
1
1
1
1
1
1
1
1
1
1
1
1
1
1
1
1
1
1
1
1
1
1
1
1
1
1
1
1
1
1
1
1
1
1
1
1
1
1
1
1
1
1
1
1
1
1
1
1
1
1
1
1
1
1
1
1
1
1
1
1
1
1
1
1
1
1
1
1
1
1
1
1
1
1
1
1
1
1
1
1
1
1
1
1
1
1
1
1
1
1
1
1
1
1
1
1
1
1
1
1
1
1
1
1
1
1
1
1
1
1
1
1
1
1
1
1
1
1
1
1
1
1
1
1
1
1
1
1
1
1
1
1
1
1
1
1
1
1
1
1
1
1
1
1
1
1
1
1
1
1
1
1
1
1
1
1
1
1
1
1
1
1
1
1
1
1
1
1
1
1
1
1
1
1
1
1
1
1
1
1
1
1
1
1
1
1
1
1
1
1
1
1
1
1
1
1
1
1
1
1
1
1
1
1
1
1
1
1
1
1
1
1
1
1
1
1
1
1
1
1
1
1
1
1
1
1
1
1
1
1
1
1
1
1
1
1
1
1
1
1
1
1
1
1
1
1
1
1
1
1
1
1
1
1
1
1
1
1
1
1
1
1
1
1
1
1
1
1
1
1
1
1
1
1
1
1
1
1
1
1
1
1
1
1
1
1
1
1
1
1
1
1
1
1
1
1
1
1
1
1
1
1
1
1
1
1
1
1
1
1
1
1
1
1
1
1
1
1
1
1
1
1
1
1
1
1
1
1
1
1
1
1
1
1
1
1
1
1
1
1
1
1
1
1
1
1
1
1
1
1
1
1
1
1
1
1
1
1
1
1
1
1
1
1
1
1
1
1
1
1
1
1
1
1
1
1
1
1
1
1
1
1
1
1
1
1
1
1
1
1
1
1
1
1
1
1
1
1
1
1
1
1
1
1
1
1
1
1
1
1
1
1
1
1
1
1
1
1
1
1
1
1
1
1
1
1
1
1
1
1
1
1
1
1
1
1
1
1
1
1
1
1
1
1
1
1
1
1
1
1
1
1
1
1
1
1
1
1
1
1
1
1
1
1
1
1
1
1
1
1
1
1
1
1
1
1
1
1
1
1
1
1
1
1
1
1
1
1
1
1
1
1
1
1
1
1
1
1
1
1
1
1
1
1
1
1
1
1
1
1
1
1
1
1
1
1
1
1
1
1
1
1
1
1
1
1
1
1
1
1
1
1
1
1
1
1
1
1
1
1
1
1
1
1
1
1
1
1
1
1
1
1
1
1
1
1
1
1
1
1
1
1
1
1
1
1
1
1
1
1
1
1
1
1
1
1
1
1
1
1
1
1
1
1
1
1
1
1
1
1
1
1
1
1
1
1
1
1
1
1
1
1
1
1
1
1
1
1
1
1
1
1
1
1
1
1
1
1
1
1
1
1
1
1
1
1
1
1
1
1
1
1
1
1
1
1
1
1
1
1
1
1
1
1
1
1
1
1
1
1
1
1
1
1
1
1
1
1
1
1
1
1
1
1
1
1
1
1
1
1
1
1
1
1
1
1
1
1
1
1
1
1
1
1
1
1
1
1
1
1
1
1
1
1
1
1
1
1
1
1
1
1
1
1
1
1
1
1
1
1
1
1
1
1
1
1
1
1
1
1
1
1
1
1
1
1
1
1
1
1
1
1
1
1
1
1
1
1
1
1
1
1
1
1
1
1
1
1
1
1
1
1
1
1
1
1
1
1
1
1
1
1
1
1
1
1
1
1
1
1
1
1
1
1
1
1
1
1
1
1
1
1
1
1
1
1
1
1
1
1
1
1
1
1
1
1
1
1
1
1
1
1
1
1
1
1
1
1
1
1
1
1
1
1
1
1
1
1
1
1
1
1
1
1
1
1
1
1
1
1
1
1
1
1
1
1
1
1
1
1
1
1
1
1
1
1
1
1
1
1
1
1
1
1
1
1
1
1
1
1
1
1
1
1
1
1
1
1
1
1
1
1
1
1
1
1
1
1
1
1
1
1
1
1
1
1
1
1
1
1
1
1
1
1
1
1
1
1
1
1
1
1
1
1
1
1
1
1
1
1
1
1
1
1
1
1
1
1
1
1
1
1
1
1
1
1
1
1
1
1
1
1
1
1
1
1
1
1
1
1
1
1
1
1
1
1
1
1
1
1
1
1
1
1
1
1
1
1
1
1
1
1
1
1
1
1
1
1
1
1
1
1
1
1
1
1
1
1
1
1
1
1
1
1
1
1
1
1
1
1
1
1
1
1
1
1
1
1
1
1
1
1
1
1
1
1
1
1
1
1
1
1
1
1
1
1
1
1
1
1
1
1
1
1
1
1
1
1
1
1
1
1
1
1
1
1
1
1
1
1
1
1
1
1
1
1
1
1
1
1
1
1
1
1
1
1
1
1
1
1
1
1
1
1
1
1
1
1
1
1
1
1
1
1
1
1
1
1
1
1
1
1
1
1
1
1
1
1
1
1
1
1
1
1
1
1
1
1
1
1
1
1
1
1
1
1
1
1
1
1
1
1
1
1
1
1
1
1
1
1
1
1
1
1
1
1
1
1
1
1
1
1
1
1
1
1
1
1
1
1
1
1
1
1
1
1
1
1
1
1
1
1
1
1
1
1
1
1
1
1
1
1
1
1
1
1
1
1
1
1
1
1
1
1
1
1
1
1
1
1
1
1
1
1
1
1
1
1
1
1
1
1
1
1
1
1
1
1
1
1
1
1
1
1
1
1
1
1
1
1
1
1
1
1
1
1
1
1
1
1
1
1
1
1
1
1
1
1
1
1
1
1
1
1
1
1
1
1
1
1
1
1
1
1
1
1
1
1
1
1
1
1
1
1
1
1
1
1
1
1
1
1
1
1
1
1
1
1
1
1
1
1
1
1
1
1
1
1
1
1
1
1
1
1
1
1
1
1
1
1
1
1
1
1
1
1
1
1
1
1
1
1
1
1
1
1
1
1
1
1
1
1
1
1
1
1
1
1
1
1
1
1
1
1
1
1
1
1
1
1
1
1
1
1
1
1
1
1
1
1
1
1
1
1
1
1
1
1
1
1
1
1
1
1
1
1
1
1
1
1
1
1
1
1
1
1
1
1
1
1
1
1
1
1
1
1
1
1
1
1
1
1
1
1
1
1
1
1
1
1
1
1
1
1
1
1
1
1
1
1
1
1
1
1
1
1
1
1
1
1
1
1
1
1
1
1
1
1
1
1
1
1
1
1
1
1
1
1
1
1
1
1
1
1
1
1
1
1
1
1
1
1
1
1
1
1
1
1
1
1
1
1
1
1
1
1
1
1
1
1
1
1
1
1
1
1
1
1
1
1
1
1
1
1
1
1
1
1
1
1
1
1
1
1
1
1
1
1
1
1
1
1
1
1
1
1
1
1
1
1
1
1
1
1
1
1
1
1
1
1
1
1
1
1
1
1
1
1
1
1
1
1
1
1
1
1
1
1
1
1
1
1
1
1
1
1
1
1
1
1
1
1
1
1
1
1
1
1
1
1
1
1
1
1
1
1
1
1
1
1
1
1
1
1
1
1
1
1
1
1
1
1
1
1
1
1
1
1
1
1
1
1
1
1
1
1
1
1
1
1
1
1
1
1
1
1
1
1
1
1
1
1
1
1
1
1
1
1
1
1
1
1
1
1
1
1
1
1
1
1
1
1
1
1
1
1
1
1
1
1
1
1
1
1
1
1
1
1
1
1
1
1
1
1
1
1
1
1
1
1
1
1
1
1
1
1
1
1
1
1
1
1
1
1
1
1
1
1
1
1
1
1
1
1
1
1
1
1
1
1
1
1
1
1
1
1
1
1
1
1
1
1
1
1
1
1
1
1
1
1
1
1
1
1
1
1
1
1
1
1
1
1
1
1
1
1
1
1
1
1
1
1
1
1
1
1
1
1
1
1
1
1
1
1
1
1
1
1
1
1
1
1
1
1
1
1
1
1
1
1
1
1
1
1
1
1
1
1
1
1
1
1
1
1
1
1
1
1
1
1
1
1
1
1
1
1
1
1
1
1
1
1
1
1
1
1
1
1
1
1
1
1
1
1
1
1
1
1
1
1
1
1
1
1
1
1
1
1
1
1
1
1
1
1
1
1
1
1
1
1
1
1
1
1
1
1
1
1
1
1
1
1
1
1
1
1
1
1
1
1
1
1
1
1
1
1
1
1
1
1
1
1
1
1
1
1
1
1
1
1
1
1
1
1
1
1
1
1
1
1
1
1
1
1
1
1
1
1
1
1
1
1
1
1
1
1
1
1
1
1
1
1
1
1
1
1
1
1
1
1
1
1
1
1
1
1
1
1
1
1
1
1
1
1
1
1
1
1
1
1
1
1
1
1
1
1
1
1
1
1
1
1
1
1
1
1
1
1
1
1
1
1
1
1
1
1
1
1
1
1
1
1
1
1
1
1
1
1
1
1
1
1
1
1
1
1
1
1
1
1
1
1
1
1
1
1
1
1
1
1
1
1
1
1
1
1
1
1
1
1
1
1
1
1
1
1
1
1
1
1
1
1
1
1
1
1
1
1
1
1
1
1
1
1
1
1
1
1
1
1
1
1
1
1
1
1
1
1
1
1
1
1
1
1
1
1
1
1
1
1
1
1
1
1
1
1
1
1
1
1
1
1
1
1
1
1
1
1
1
1
1
1
1
1
1
1
1
1
1
1
1
1
1
1
1
1
1
1
1
1
1
1
1
1
1
1
1
1
1
1
1
1
1
1
1
1
1
1
1
1
1
1
1
1
1
1
1
1
1
1
1
1
1
1
1
1
1
1
1
1
1
1
1
1
1
1
1
1
1
1
1
1
1
1
1
1
1
1
1
1
1
1
1
1
1
1
1
1
1
1
1
1
1
1
1
1
1
1
1
1
1
1
1
1
1
1
1
1
1
1
1
1
1
1
1
1
1
1
1
1
1
1
1
1
1
1
1
1
1
1
1
1
1
1
1
1
1
1
1
1
1
1
1
1
1
1
1
1
1
1
1
1
1
1
1
1
1
1
1
1
1
1
1
1
1
1
1
1
1
1
1
1
1
1
1
1
1
1
1
1
1
1
1
1
1
1
1
1
1
1
1
1
1
1
1
1
1
1
1
1
1
1
1
1
1
1
1
1
1
1
1
1
1
1
1
1
1
1
1
1
1
1
1
1
1
1
1
1
1
1
1
1
1
1
1
1
1
1
1
1
1
1
1
1
1
1
1
1
1
1
1
1
1
1
1
1
1
1
1
1
1
1
1
1
1
1
1
1
1
1
1
1
1
1
1
1
1
1
1
1
1
1
1
1
1
1
1
1
1
1
1
1
1
1
1
1
1
1
1
1
1
1
1
1
1
1
1
1
1
1
1
1
1
1
1
1
1
1
1
1
1
1
1
1
1
1
1
1
1
1
1
1
1
1
1
1
1
1
1
1
1
1
1
1
1
1
1
1
1
1
1
1
1
1
1
1
1
1
1
1
1
1
1
1
1
1
1
1
1
1
1
1
1
1
1
1
1
1
1
1
1
1
1
1
1
1
1
1
1
1
1
1
1
1
1
1
1
1
1
1
1
1
1
1
1
1
1
1
1
1
1
1
1
1
1
1
1
1
1
1
1
1
1
1
1
1
1
1
1
1
1
1
1
1
1
1
1
1
1
1
1
1
1
1
1.28952
1.7612
2.30923
2.8795
3.59212
4.15348
4.66303
5.12403
5.34319
5.24627
4.91655
4.47969
4.0977
3.79646
3.65815
3.57334
3.55301
3.56828
3.60667
3.64867
3.68486
3.70293
3.71513
3.72777
3.7413
3.75334
3.7621
3.76812
3.775
3.78614
3.79664
3.79918
3.79763
3.79233
3.78325
3.77439
3.76882
3.76592
3.76483
3.76501
3.76542
3.76822
3.7694
3.76954
3.7693
3.76863
3.76742
3.76849
1.00185
1.01432
1.0777
1.20099
1.40949
1.76897
2.21416
2.75309
3.32053
3.72875
3.88338
4.07519
4.05791
3.95928
3.83756
3.78661
3.74399
3.69409
3.67348
3.66972
3.68247
3.70475
3.72452
3.73477
3.73952
3.74552
3.75205
3.7552
3.75824
3.7644
3.77229
3.77851
3.7816
3.78154
3.77854
3.77392
3.7711
3.77115
3.77272
3.77501
3.77773
3.77911
3.77871
3.7773
3.77377
3.76842
3.76616
3.76777
1
0.999976
1.00007
1.00006
1.00129
1.01342
1.0608
1.22329
1.59875
2.36524
3.29799
3.938
4.31217
4.32055
4.24483
4.11526
3.98374
3.79795
3.68408
3.67964
3.69266
3.71504
3.73861
3.74688
3.74834
3.74442
3.74794
3.7515
3.75413
3.75832
3.76372
3.76766
3.76784
3.76653
3.76419
3.76258
3.76289
3.76522
3.76942
3.77604
3.78357
3.7873
3.78732
3.78571
3.78159
3.77466
3.77033
3.77226
1
1
1
1
0.999998
1
0.999986
1.0001
1.00534
1.07146
1.43822
2.11876
3.21969
3.73647
4.04912
4.02592
3.94033
3.91506
3.85087
3.79161
3.77147
3.73711
3.72603
3.72098
3.72374
3.7306
3.7442
3.75815
3.76636
3.77223
3.77553
3.77523
3.7739
3.77112
3.76967
3.76805
3.76665
3.7676
3.77093
3.77596
3.78092
3.78302
3.7819
3.77895
3.77354
3.76904
3.7685
3.77079
1
1
1
1
1
1
1
0.999999
1
0.999919
1.00242
1.03807
1.30614
1.9661
2.8813
3.707
3.89329
4.01032
3.996
3.93564
3.81329
3.71408
3.68078
3.6738
3.67868
3.68651
3.70486
3.72952
3.75331
3.77292
3.78222
3.78318
3.78167
3.77813
3.77761
3.77779
3.77684
3.77703
3.77941
3.78206
3.78321
3.78208
3.7794
3.77461
3.76829
3.76504
3.7644
3.76623
1
1
1
1
1
1
1
1
1
0.999997
0.999997
0.999952
1.00087
1.03049
1.20255
1.84363
2.66325
3.52718
3.87085
3.8581
3.85228
3.80056
3.74638
3.71366
3.69087
3.68526
3.69035
3.70441
3.72385
3.74383
3.76053
3.77152
3.77268
3.77248
3.77195
3.77093
3.76917
3.76944
3.77272
3.77452
3.77355
3.77157
3.7692
3.76663
3.76443
3.76353
3.76276
3.76897
1
1
1
1
1
1
1
1
1
1
1
0.999997
0.999998
0.999969
1.00037
1.02277
1.18435
1.66837
2.5261
3.23116
3.7804
3.87164
3.85121
3.81411
3.77486
3.73932
3.71385
3.70861
3.71167
3.72093
3.7321
3.74909
3.75814
3.76229
3.76085
3.76009
3.76067
3.76469
3.77115
3.77338
3.77321
3.77234
3.7716
3.77133
3.77099
3.77089
3.77045
3.77587
1
1
1
1
1
1
1
1
1
1
1
1
1
0.999998
0.999998
0.999973
1.00048
1.01196
1.15899
1.57377
2.43943
3.09887
3.54695
3.77078
3.80146
3.79323
3.75973
3.74826
3.74394
3.74087
3.73963
3.7375
3.74348
3.75277
3.75875
3.76277
3.7661
3.77169
3.7782
3.77944
3.77885
3.77667
3.77471
3.77399
3.77338
3.77298
3.77339
3.77606
1
1
1
1
1
1
1
1
1
1
1
1
1
1
1
0.999998
0.999998
0.99998
1.0005
1.01054
1.12394
1.57144
2.28085
3.10579
3.42271
3.61684
3.72357
3.75618
3.75486
3.73509
3.73071
3.73354
3.73953
3.74972
3.76078
3.77037
3.77846
3.78448
3.78649
3.78541
3.78336
3.78069
3.7762
3.77279
3.7713
3.7709
3.77162
3.77393
1
1
1
1
1
1
1
1
1
1
1
1
1
1
1
1
1
0.999998
0.999998
0.999985
1.00034
1.01345
1.10062
1.51934
2.20125
3.04613
3.49385
3.59691
3.67775
3.67998
3.69599
3.70938
3.71385
3.72292
3.73771
3.75258
3.76695
3.77579
3.77851
3.77927
3.77857
3.77851
3.77743
3.77522
3.77346
3.77338
3.77467
3.77578
1
1
1
1
1
1
1
1
1
1
1
1
1
1
1
1
1
1
1
0.999998
0.999999
0.999988
1.00026
1.01202
1.10572
1.46532
2.22353
2.95959
3.51458
3.66986
3.69775
3.7114
3.71262
3.71453
3.72353
3.73334
3.74568
3.75889
3.76541
3.7672
3.76663
3.76801
3.76856
3.76726
3.76727
3.76838
3.77141
3.77308
1
1
1
1
1
1
1
1
1
1
1
1
1
1
1
1
1
1
1
1
1
0.999999
0.999999
0.999989
1.0004
1.00946
1.12952
1.48126
2.25485
2.9605
3.48455
3.70293
3.74251
3.74949
3.76459
3.76376
3.76327
3.77086
3.77674
3.77694
3.77447
3.77165
3.76825
3.76661
3.76784
3.76907
3.77048
3.77189
1
1
1
1
1
1
1
1
1
1
1
1
1
1
1
1
1
1
1
1
1
1
1
0.999998
0.999999
0.999989
1.00083
1.01134
1.13475
1.56222
2.34494
3.0353
3.43297
3.65777
3.74223
3.753
3.7637
3.77451
3.77762
3.7783
3.77758
3.77563
3.77709
3.77877
3.78035
3.78112
3.77947
3.77893
1
1
1
1
1
1
1
1
1
1
1
1
1
1
1
1
1
1
1
1
1
1
1
1
1
0.999998
0.999999
0.999992
1.00111
1.01914
1.15221
1.67207
2.47273
3.27428
3.4995
3.60281
3.68447
3.72829
3.73642
3.74018
3.74727
3.76119
3.774
3.78064
3.78282
3.78174
3.78063
3.77883
1
1
1
1
1
1
1
1
1
1
1
1
1
1
1
1
1
1
1
1
1
1
1
1
1
1
1
0.999999
0.999998
1.00001
1.00151
1.03559
1.21466
1.84498
2.66389
3.40006
3.66786
3.69319
3.71176
3.71324
3.72167
3.73901
3.75568
3.76543
3.77049
3.77451
3.77711
3.77569
1
1
1
1
1
1
1
1
1
1
1
1
1
1
1
1
1
1
1
1
1
1
1
1
1
1
1
1
1
1
0.999997
1.00009
1.00307
1.06322
1.33677
2.10124
2.93279
3.49884
3.73902
3.74877
3.77386
3.78758
3.78754
3.78322
3.78067
3.77933
3.7766
3.77424
1
1
1
1
1
1
1
1
1
1
1
1
1
1
1
1
1
1
1
1
1
1
1
1
1
1
1
1
1
1
1
1
0.999996
1.00041
1.00804
1.1224
1.56459
2.44852
3.14954
3.53697
3.73566
3.77899
3.78158
3.79238
3.79403
3.79012
3.78472
3.78049
1
1
1
1
1
1
1
1
1
1
1
1
1
1
1
1
1
1
1
1
1
1
1
1
1
1
1
1
1
1
1
1
0.999999
0.999999
1
1.00159
1.02454
1.24031
1.90392
2.91942
3.44547
3.57917
3.66959
3.73717
3.7598
3.76534
3.76694
3.76818
1
1
1
1
1
1
1
1
1
1
1
1
1
1
1
1
1
1
1
1
1
1
1
1
1
1
1
1
1
1
1
1
1
1
1
0.999998
1.00007
1.00642
1.08177
1.50659
2.37628
3.26239
3.68369
3.72401
3.74558
3.74669
3.74346
3.74824
1
1
1
1
1
1
1
1
1
1
1
1
1
1
1
1
1
1
1
1
1
1
1
1
1
1
1
1
1
1
1
1
1
1
1
1
1
1.00001
1.00079
1.02612
1.23649
1.95223
2.91339
3.52564
3.77554
3.79029
3.78764
3.78546
1
1
1
1
1
1
1
1
1
1
1
1
1
1
1
1
1
1
1
1
1
1
1
1
1
1
1
1
1
1
1
1
1
1
1
1
1
1
0.999999
1.00016
1.00574
1.10549
1.60808
2.60848
3.29469
3.58527
3.76104
3.77396
1
1
1
1
1
1
1
1
1
1
1
1
1
1
1
1
1
1
1
1
1
1
1
1
1
1
1
1
1
1
1
1
1
1
1
1
1
1
1
0.999999
1.00001
1.00196
1.03751
1.35424
2.19324
3.25234
3.59684
3.66476
1
1
1
1
1
1
1
1
1
1
1
1
1
1
1
1
1
1
1
1
1
1
1
1
1
1
1
1
1
1
1
1
1
1
1
1
1
1
1
1
1
1
1.0003
1.01752
1.17951
1.93542
2.94261
3.61917
1
1
1
1
1
1
1
1
1
1
1
1
1
1
1
1
1
1
1
1
1
1
1
1
1
1
1
1
1
1
1
1
1
1
1
1
1
1
1
1
1
1
1
1.00012
1.00481
1.12068
1.65662
2.79317
1
1
1
1
1
1
1
1
1
1
1
1
1
1
1
1
1
1
1
1
1
1
1
1
1
1
1
1
1
1
1
1
1
1
1
1
1
1
1
1
1
1
1
1
1.00002
1.00312
1.05595
1.45622
1
1
1
1
1
1
1
1
1
1
1
1
1
1
1
1
1
1
1
1
1
1
1
1
1
1
1
1
1
1
1
1
1
1
1
1
1
1
1
1
1
1
1
1
1
1.00001
1.0009
1.02148
1
1
1
1
1
1
1
1
1
1
1
1
1
1
1
1
1
1
1
1
1
1
1
1
1
1
1
1
1
1
1
1
1
1
1
1
1
1
1
1
1
1
1
1
1
1
1.00001
0.999828
1
1
1
1
1
1
1
1
1
1
1
1
1
1
1
1
1
1
1
1
1
1
1
1
1
1
1
1
1
1
1
1
1
1
1
1
1
1
1
1
1
1
1
1
1
1
1
0.999942
1
1
1
1
1
1
1
1
1
1
1
1
1
1
1
1
1
1
1
1
1
1
1
1
1
1
1
1
1
1
1
1
1
1
1
1
1
1
1
1
1
1
1
1
1
1
1
0.999993
1
1
1
1
1
1
1
1
1
1
1
1
1
1
1
1
1
1
1
1
1
1
1
1
1
1
1
1
1
1
1
1
1
1
1
1
1
1
1
1
1
1
1
1
1
1
1
1
1
1
1
1
1
1
1
1
1
1
1
1
1
1
1
1
1
1
1
1
1
1
1
1
1
1
1
1
1
1
1
1
1
1
1
1
1
1
1
1
1
1
1
1
1
1
1
1
1
1
1
1
1
1
1
1
1
1
1
1
1
1
1
1
1
1
1
1
1
1
1
1
1
1
1
1
1
1
1
1
1
1
1
1
1
1
1
1
1
1
1
1
1
1
1
1
1
1
1
1
1
1
1
1
1
1
1
1
1
1
1
1
1
1
1
1
1
1
1
1
1
1
1
1
1
1
1
1
1
1
1
1
1
1
1
1
1
1
1
1
1
1
1
1
1
1
1
1
1
1
1
1
1
1
1
1
1
1
1
1
1
1
1
1
1
1
1
1
1
1
1
1
1
1
1
1
1
1
1
1
1
1
1
1
1
1
1
1
1
1
1
1
1
1
1
1
1
1
1
1
1
1
1
1
1
1
1
1
1
1
1
1
1
1
1
1
1
1
1
1
1
1
1
1
1
1
1
1
1
1
1
1
1
1
1
1
1
1
1
1
1
1
1
1
1
1
1
1
1
1
1
1
1
1
1
1
1
1
1
1
1
1
1
1
1
1
1
1
1
1
1
1
1
1
1
1
1
1
1
1
1
1
1
1
1
1
1
0.999993
1
1
1
1
1
1
1
1
1
1
1
1
1
1
1
1
1
1
1
1
1
1
1
1
1
1
1
1
1
1
1
1
1
1
1
1
1
1
1
1
1
1
1
1
1
1
1
0.999942
1
1
1
1
1
1
1
1
1
1
1
1
1
1
1
1
1
1
1
1
1
1
1
1
1
1
1
1
1
1
1
1
1
1
1
1
1
1
1
1
1
1
1
1
1
1
1.00001
0.999828
1
1
1
1
1
1
1
1
1
1
1
1
1
1
1
1
1
1
1
1
1
1
1
1
1
1
1
1
1
1
1
1
1
1
1
1
1
1
1
1
1
1
1
1
1
1.00001
1.0009
1.02151
1
1
1
1
1
1
1
1
1
1
1
1
1
1
1
1
1
1
1
1
1
1
1
1
1
1
1
1
1
1
1
1
1
1
1
1
1
1
1
1
1
1
1
1
1.00002
1.00312
1.05593
1.45634
1
1
1
1
1
1
1
1
1
1
1
1
1
1
1
1
1
1
1
1
1
1
1
1
1
1
1
1
1
1
1
1
1
1
1
1
1
1
1
1
1
1
1
1.00012
1.00481
1.12068
1.65665
2.79303
1
1
1
1
1
1
1
1
1
1
1
1
1
1
1
1
1
1
1
1
1
1
1
1
1
1
1
1
1
1
1
1
1
1
1
1
1
1
1
1
1
1
1.0003
1.01752
1.17952
1.93539
2.94272
3.61909
1
1
1
1
1
1
1
1
1
1
1
1
1
1
1
1
1
1
1
1
1
1
1
1
1
1
1
1
1
1
1
1
1
1
1
1
1
1
1
0.999999
1.00001
1.00196
1.03751
1.35424
2.19324
3.25233
3.59685
3.66479
1
1
1
1
1
1
1
1
1
1
1
1
1
1
1
1
1
1
1
1
1
1
1
1
1
1
1
1
1
1
1
1
1
1
1
1
1
1
0.999999
1.00016
1.00574
1.10549
1.60809
2.60848
3.29469
3.58527
3.76104
3.77397
1
1
1
1
1
1
1
1
1
1
1
1
1
1
1
1
1
1
1
1
1
1
1
1
1
1
1
1
1
1
1
1
1
1
1
1
1
1.00001
1.00079
1.02612
1.23649
1.95223
2.91339
3.52564
3.77554
3.79029
3.78764
3.78546
1
1
1
1
1
1
1
1
1
1
1
1
1
1
1
1
1
1
1
1
1
1
1
1
1
1
1
1
1
1
1
1
1
1
1
0.999998
1.00007
1.00642
1.08177
1.50659
2.37628
3.26239
3.6837
3.72401
3.74558
3.74669
3.74346
3.74824
1
1
1
1
1
1
1
1
1
1
1
1
1
1
1
1
1
1
1
1
1
1
1
1
1
1
1
1
1
1
1
1
0.999999
0.999999
1
1.00159
1.02454
1.24031
1.90392
2.91942
3.44548
3.57917
3.66959
3.73717
3.7598
3.76534
3.76694
3.76818
1
1
1
1
1
1
1
1
1
1
1
1
1
1
1
1
1
1
1
1
1
1
1
1
1
1
1
1
1
1
1
1
0.999996
1.00041
1.00804
1.1224
1.56459
2.44852
3.14954
3.53697
3.73566
3.77899
3.78158
3.79238
3.79403
3.79012
3.78472
3.78049
1
1
1
1
1
1
1
1
1
1
1
1
1
1
1
1
1
1
1
1
1
1
1
1
1
1
1
1
1
1
0.999997
1.00009
1.00307
1.06322
1.33677
2.10124
2.93279
3.49884
3.73902
3.74877
3.77386
3.78758
3.78754
3.78322
3.78067
3.77933
3.7766
3.77424
1
1
1
1
1
1
1
1
1
1
1
1
1
1
1
1
1
1
1
1
1
1
1
1
1
1
1
0.999999
0.999998
1.00001
1.00151
1.03559
1.21466
1.84498
2.66389
3.40006
3.66786
3.69319
3.71176
3.71324
3.72167
3.73901
3.75568
3.76543
3.77049
3.77451
3.77711
3.77569
1
1
1
1
1
1
1
1
1
1
1
1
1
1
1
1
1
1
1
1
1
1
1
1
1
0.999998
0.999999
0.999992
1.00111
1.01914
1.15221
1.67207
2.47273
3.27428
3.49951
3.60281
3.68447
3.72829
3.73642
3.74018
3.74727
3.76119
3.774
3.78063
3.78282
3.78174
3.78063
3.77883
1
1
1
1
1
1
1
1
1
1
1
1
1
1
1
1
1
1
1
1
1
1
1
0.999998
0.999999
0.999989
1.00083
1.01134
1.13475
1.56222
2.34493
3.0353
3.43297
3.65777
3.74223
3.75299
3.7637
3.77451
3.77762
3.7783
3.77758
3.77563
3.77709
3.77877
3.78035
3.78112
3.77947
3.77893
1
1
1
1
1
1
1
1
1
1
1
1
1
1
1
1
1
1
1
1
1
0.999999
0.999999
0.999989
1.0004
1.00946
1.12952
1.48126
2.25485
2.9605
3.48455
3.70293
3.74252
3.74949
3.7646
3.76376
3.76327
3.77086
3.77674
3.77694
3.77447
3.77165
3.76825
3.76661
3.76784
3.76907
3.77048
3.77189
1
1
1
1
1
1
1
1
1
1
1
1
1
1
1
1
1
1
1
0.999998
0.999999
0.999988
1.00026
1.01202
1.10572
1.46532
2.22353
2.95959
3.51458
3.66986
3.69775
3.7114
3.71262
3.71453
3.72353
3.73334
3.74568
3.75889
3.76541
3.7672
3.76663
3.76801
3.76856
3.76726
3.76727
3.76838
3.77141
3.77308
1
1
1
1
1
1
1
1
1
1
1
1
1
1
1
1
1
0.999998
0.999998
0.999985
1.00034
1.01345
1.10062
1.51934
2.20125
3.04613
3.49386
3.59691
3.67775
3.67998
3.69599
3.70938
3.71385
3.72292
3.73771
3.75258
3.76695
3.77579
3.77851
3.77927
3.77857
3.77851
3.77743
3.77522
3.77346
3.77338
3.77467
3.77578
1
1
1
1
1
1
1
1
1
1
1
1
1
1
1
0.999998
0.999998
0.99998
1.0005
1.01054
1.12394
1.57144
2.28085
3.1058
3.42271
3.61684
3.72357
3.75618
3.75486
3.73509
3.73071
3.73354
3.73953
3.74972
3.76078
3.77037
3.77846
3.78448
3.78649
3.78541
3.78336
3.78069
3.7762
3.77279
3.7713
3.7709
3.77162
3.77393
1
1
1
1
1
1
1
1
1
1
1
1
1
0.999998
0.999998
0.999973
1.00048
1.01196
1.15899
1.57377
2.43943
3.09887
3.54695
3.77078
3.80146
3.79323
3.75974
3.74826
3.74394
3.74087
3.73963
3.7375
3.74348
3.75277
3.75875
3.76277
3.7661
3.77169
3.7782
3.77944
3.77885
3.77668
3.77471
3.77399
3.77338
3.77298
3.77339
3.77606
1
1
1
1
1
1
1
1
1
1
1
0.999997
0.999998
0.999969
1.00037
1.02277
1.18435
1.66837
2.5261
3.23116
3.7804
3.87164
3.85121
3.81411
3.77486
3.73932
3.71386
3.70861
3.71167
3.72093
3.7321
3.74909
3.75814
3.76229
3.76085
3.76009
3.76067
3.76469
3.77115
3.77338
3.77321
3.77234
3.7716
3.77133
3.77099
3.77089
3.77045
3.77587
1
1
1
1
1
1
1
1
1
0.999997
0.999997
0.999952
1.00087
1.03049
1.20255
1.84363
2.66325
3.52718
3.87086
3.8581
3.85229
3.80056
3.74638
3.71366
3.69087
3.68526
3.69035
3.70441
3.72385
3.74383
3.76053
3.77152
3.77268
3.77248
3.77195
3.77093
3.76917
3.76944
3.77272
3.77452
3.77355
3.77157
3.7692
3.76663
3.76443
3.76353
3.76276
3.76897
1
1
1
1
1
1
1
0.999999
1
0.999919
1.00242
1.03807
1.30614
1.9661
2.88129
3.707
3.8933
4.01032
3.996
3.93564
3.81329
3.71408
3.68078
3.6738
3.67868
3.68651
3.70486
3.72952
3.75331
3.77292
3.78222
3.78318
3.78167
3.77813
3.77761
3.77779
3.77684
3.77703
3.77941
3.78206
3.78321
3.78208
3.7794
3.77461
3.7683
3.76504
3.7644
3.76623
1
1
1
1
0.999998
1
0.999986
1.0001
1.00534
1.07146
1.43822
2.11876
3.2197
3.73647
4.04912
4.02592
3.94033
3.91505
3.85087
3.79161
3.77146
3.73711
3.72603
3.72098
3.72374
3.7306
3.7442
3.75815
3.76636
3.77223
3.77553
3.77523
3.7739
3.77112
3.76967
3.76805
3.76665
3.7676
3.77093
3.77596
3.78092
3.78302
3.7819
3.77895
3.77354
3.76904
3.7685
3.77079
1
0.999976
1.00007
1.00006
1.00129
1.01342
1.0608
1.22329
1.59875
2.36524
3.29799
3.938
4.31217
4.32055
4.24483
4.11526
3.98374
3.79795
3.68408
3.67964
3.69266
3.71504
3.73861
3.74689
3.74834
3.74442
3.74794
3.7515
3.75413
3.75832
3.76372
3.76766
3.76784
3.76653
3.76419
3.76258
3.76289
3.76522
3.76942
3.77604
3.78357
3.7873
3.78732
3.78571
3.78159
3.77466
3.77033
3.77226
1.00185
1.01432
1.0777
1.20099
1.40949
1.76897
2.21416
2.75309
3.32053
3.72875
3.88338
4.07519
4.05791
3.95928
3.83756
3.78661
3.74399
3.69409
3.67348
3.66972
3.68247
3.70475
3.72452
3.73477
3.73952
3.74552
3.75205
3.7552
3.75824
3.7644
3.77229
3.77851
3.78159
3.78154
3.77854
3.77393
3.7711
3.77115
3.77272
3.77501
3.77773
3.77911
3.77871
3.7773
3.77377
3.76842
3.76616
3.76777
1.28952
1.7612
2.30923
2.8795
3.59212
4.15348
4.66303
5.12403
5.34319
5.24627
4.91655
4.47969
4.09769
3.79646
3.65815
3.57334
3.55301
3.56828
3.60667
3.64867
3.68486
3.70293
3.71513
3.72777
3.7413
3.75334
3.7621
3.76812
3.775
3.78614
3.79664
3.79918
3.79763
3.79234
3.78325
3.77439
3.76882
3.76592
3.76483
3.76501
3.76542
3.76822
3.7694
3.76954
3.7693
3.76863
3.76742
3.76849
2.66417
1.66813
1.13176
0.89997
0.69527
0.638387
0.668441
0.740096
0.781645
0.821275
0.911129
1.0004
1.00293
1.00189
1.02514
1.04291
1.04658
1.05392
1.07496
1.08096
1.07904
1.07548
1.07177
1.06266
1.04751
1.04332
1.04573
1.04837
1.04744
1.04485
1.04204
1.03919
1.03754
1.03756
1.03891
1.04233
1.04638
1.04753
1.04778
1.04723
1.04554
1.04538
1.04625
1.04849
1.05204
1.05351
1.05362
1.05349
1.05265
1.05076
1.04916
1.05063
1.08226
1.25093
1.62563
2.57866
3.98115
5.23226
6.44234
7.59295
8.04279
8.15246
7.83587
7.29726
6.82795
6.50119
6.31299
6.20815
6.10258
6.01781
5.91186
5.77172
5.5802
5.37458
5.28649
5.2345
5.19456
5.15174
5.08804
5.00438
4.87465
4.66746
4.49632
4.42816
4.37934
4.3292
4.27511
4.20772
4.09477
3.93318
3.85506
3.82148
3.79197
3.7608
3.72149
3.67286
3.58546
3.41073
3.26127
3.21306
3.18346
3.15549
3.13392
3.11347
3.0862
3.05258
2.99762
2.8959
2.76772
2.68988
2.64848
2.61856
2.59612
2.5772
2.55841
2.53698
2.50754
2.45576
2.36977
2.28202
2.22663
2.18817
2.16459
2.15076
2.137
2.12112
2.10303
2.0825
2.05502
2.00752
1.9228
1.84442
1.81783
1.80385
1.79017
1.77755
1.76562
1.75317
1.73913
1.72021
1.68381
1.61496
1.5661
1.55321
1.54466
1.5348
1.52331
1.51005
1.49106
1.45062
1.39152
1.36784
1.35998
1.35287
1.34646
1.34027
1.33215
1.32265
1.30512
1.2599
1.20867
1.19386
1.18593
1.17816
1.17202
1.16566
1.15723
1.14741
1.13611
1.11775
1.08806
1.0702
1.0663
1.06438
1.06275
1.06362
1.06867
1.06845
1.06167
1.04974
1.03095
1.00253
0.979092
0.971249
0.966477
0.960931
0.954995
0.950515
0.946712
0.942221
0.934204
0.912685
3.37404
2.76599
2.12158
1.78731
1.51959
1.2211
1.1301
1.06975
0.984815
0.94181
0.94234
0.934509
0.922005
0.925862
0.946641
0.978227
0.995305
1.0093
1.03579
1.04825
1.04708
1.04644
1.04962
1.05032
1.04652
1.04512
1.04728
1.05109
1.05061
1.04847
1.04719
1.04551
1.04456
1.04434
1.04536
1.04715
1.04738
1.04744
1.04731
1.04599
1.04471
1.04439
1.04474
1.04655
1.04978
1.0518
1.05188
1.05159
1.05038
1.04946
1.05469
1.11004
1.44804
1.99468
2.49087
2.92605
3.22311
3.63422
4.15206
4.9173
5.5625
6.17317
6.56321
6.78257
6.86955
6.71747
6.49505
6.31859
6.22648
6.10536
5.96744
5.81229
5.63292
5.44664
5.34436
5.28594
5.22543
5.16434
5.09781
5.01179
4.88714
4.71078
4.5542
4.48541
4.43205
4.37475
4.30985
4.2309
4.12029
3.97732
3.89919
3.86339
3.82689
3.78869
3.74501
3.68834
3.59689
3.45138
3.31474
3.26074
3.22938
3.19742
3.16652
3.13901
3.11066
3.07506
3.01455
2.90476
2.78845
2.72728
2.69418
2.66092
2.63008
2.60579
2.58471
2.5621
2.5307
2.47412
2.38701
2.30952
2.26595
2.2338
2.20463
2.18343
2.16506
2.14564
2.12456
2.1009
2.07055
2.02272
1.94827
1.87898
1.84947
1.8337
1.81865
1.80287
1.78762
1.77291
1.75675
1.73492
1.69847
1.63945
1.59113
1.57404
1.56433
1.55381
1.54015
1.52361
1.50241
1.46831
1.42
1.39258
1.37961
1.37025
1.36217
1.35442
1.34512
1.333
1.31452
1.27911
1.2313
1.21094
1.20347
1.19473
1.18604
1.17774
1.16819
1.15813
1.14815
1.13438
1.11017
1.09045
1.08554
1.08309
1.08069
1.07896
1.08047
1.07891
1.07136
1.05954
1.04406
1.02266
0.998764
0.986004
0.979294
0.972767
0.966592
0.962482
0.959238
0.955439
0.948964
0.928712
3.65937
3.34441
2.85459
2.36581
2.00335
1.64474
1.41061
1.27827
1.12599
0.989397
0.974396
0.951328
0.919554
0.920117
0.931287
0.944131
0.95508
0.970459
0.998105
1.02452
1.02653
1.02804
1.03575
1.04025
1.03927
1.04163
1.04903
1.05603
1.05669
1.05541
1.05251
1.04943
1.04861
1.04856
1.04925
1.0491
1.0479
1.04633
1.04417
1.04258
1.0425
1.04267
1.04397
1.0471
1.04993
1.05105
1.05073
1.0503
1.05367
1.0811
1.19608
1.61849
2.41347
2.80301
3.06127
3.1175
3.10565
3.07869
3.11502
3.29321
3.75195
4.50085
5.5223
6.24393
6.71969
6.73527
6.61957
6.43272
6.22255
6.01321
5.89492
5.79833
5.69799
5.57458
5.3975
5.20291
5.07568
5.01134
4.96493
4.91285
4.83507
4.73499
4.61661
4.47685
4.37302
4.31456
4.25518
4.18361
4.10235
4.01083
3.8986
3.81427
3.76424
3.71772
3.66928
3.61015
3.52781
3.44061
3.37516
3.29119
3.19967
3.15068
3.11594
3.08092
3.04582
3.00418
2.94146
2.8543
2.78486
2.7437
2.6927
2.6365
2.59763
2.56764
2.53944
2.51158
2.47841
2.42739
2.36179
2.31272
2.27085
2.224
2.19138
2.16885
2.14786
2.12383
2.09611
2.06488
2.03071
1.98984
1.94039
1.88662
1.84199
1.81775
1.8008
1.78336
1.76483
1.74634
1.72868
1.70799
1.67669
1.63815
1.6039
1.56919
1.5406
1.52729
1.5162
1.50181
1.48265
1.45714
1.42676
1.39299
1.36827
1.35029
1.3378
1.32974
1.3235
1.31407
1.29924
1.27717
1.23912
1.19972
1.18583
1.17845
1.17047
1.16255
1.15286
1.14197
1.13134
1.11793
1.09676
1.08088
1.07685
1.07445
1.07145
1.06844
1.06576
1.06067
1.05249
1.04146
1.02791
1.01051
0.989394
0.974302
0.966076
0.959144
0.952758
0.948399
0.945079
0.941606
0.936602
0.918919
3.74928
3.6226
3.32506
2.89883
2.50484
2.12793
1.81037
1.61776
1.4389
1.23262
1.17215
1.11303
1.01544
0.985758
0.985014
0.969423
0.949088
0.948464
0.958004
0.962598
0.965921
0.97268
0.990109
1.01199
1.0239
1.03335
1.04349
1.0484
1.04976
1.05014
1.04923
1.05036
1.05386
1.0583
1.05961
1.05918
1.05735
1.05323
1.04689
1.04333
1.04305
1.04336
1.04527
1.0482
1.04924
1.04939
1.05028
1.05685
1.12781
1.41448
1.86114
2.63909
3.02206
3.11187
3.15603
3.17758
3.11978
3.01757
2.96118
2.93198
2.94521
3.05288
3.47278
4.23272
5.23033
5.82901
6.12884
6.07608
6.04451
6.04516
6.03592
5.95067
5.84358
5.68631
5.44684
5.20902
5.03059
4.95777
4.91885
4.89025
4.85067
4.78629
4.67425
4.50622
4.361
4.2893
4.24032
4.19523
4.14232
4.0598
3.92896
3.81604
3.74509
3.6829
3.62062
3.5638
3.52178
3.48745
3.43647
3.34183
3.21807
3.14344
3.11387
3.07934
3.02629
2.9527
2.88452
2.84892
2.82273
2.77921
2.71342
2.63679
2.58979
2.56588
2.53879
2.49756
2.44409
2.40203
2.3735
2.342
2.29694
2.23359
2.1927
2.17954
2.15957
2.13217
2.09883
2.05828
2.01228
1.97231
1.93822
1.89617
1.84845
1.81941
1.79946
1.78007
1.76109
1.74142
1.72004
1.69924
1.67936
1.65537
1.62244
1.57956
1.54219
1.52004
1.50653
1.49574
1.48448
1.46697
1.43815
1.39903
1.36893
1.35195
1.33747
1.32376
1.31363
1.30684
1.29906
1.28489
1.25206
1.20447
1.1815
1.17261
1.16556
1.15812
1.14902
1.13805
1.1264
1.11323
1.09432
1.08083
1.07691
1.07441
1.0718
1.06866
1.06459
1.05906
1.05021
1.03701
1.0223
1.0061
0.988072
0.973337
0.964116
0.956403
0.949524
0.944819
0.941279
0.93731
0.932717
0.917271
3.76043
3.7336
3.59393
3.29631
2.95624
2.56641
2.21186
1.97829
1.75647
1.50721
1.37664
1.28353
1.15631
1.07121
1.04948
1.01156
0.960483
0.955951
0.960641
0.95363
0.951069
0.954142
0.962289
0.978584
0.99945
1.01555
1.02985
1.03475
1.03828
1.04226
1.04282
1.04335
1.05225
1.05722
1.05776
1.05752
1.05595
1.0528
1.04848
1.04631
1.04647
1.04766
1.05067
1.05098
1.05093
1.05134
1.06176
1.17001
1.66786
2.28805
2.72014
3.10489
3.22013
3.2218
3.17363
3.15663
3.11268
3.01025
2.92043
2.88381
2.85232
2.83518
2.82995
2.91087
3.21934
3.87909
4.68448
5.38449
5.7365
5.93109
6.00996
5.97449
5.87832
5.67873
5.47633
5.27593
5.07579
4.99379
4.94266
4.87361
4.79335
4.70484
4.60586
4.48954
4.37073
4.29259
4.234
4.17445
4.10929
4.03211
3.92824
3.80199
3.70492
3.63941
3.58821
3.5423
3.49914
3.45856
3.4113
3.35283
3.27508
3.17514
3.08085
3.02222
2.96943
2.91761
2.87587
2.84369
2.81017
2.77267
2.72331
2.66176
2.60409
2.55186
2.50422
2.45902
2.41811
2.38319
2.35352
2.32679
2.29506
2.25317
2.2035
2.1534
2.12543
2.10239
2.07549
2.04169
2.00339
1.97019
1.94156
1.91026
1.86486
1.81282
1.7883
1.77281
1.75615
1.73811
1.71869
1.69568
1.66614
1.63599
1.60622
1.57458
1.54488
1.52554
1.50777
1.48719
1.46669
1.45027
1.43196
1.40439
1.36978
1.35433
1.34529
1.33093
1.31467
1.30074
1.28651
1.2685
1.24404
1.21666
1.19221
1.17468
1.1644
1.15606
1.14663
1.13563
1.12259
1.10778
1.09903
1.09474
1.0916
1.08874
1.08564
1.08162
1.07639
1.06954
1.05827
1.04041
1.0227
1.00722
0.989339
0.97465
0.96507
0.956879
0.949662
0.944768
0.940673
0.935696
0.930223
0.916586
3.76811
3.75522
3.70863
3.55332
3.30652
2.97846
2.6016
2.32598
2.08441
1.83067
1.6569
1.52822
1.37689
1.25694
1.20655
1.15295
1.06662
1.04063
1.02376
0.989745
0.967689
0.967052
0.966655
0.96433
0.968398
0.979185
0.99043
1.0007
1.00996
1.02003
1.02918
1.03466
1.04581
1.05332
1.05458
1.05496
1.0544
1.05128
1.0474
1.04719
1.04937
1.05444
1.05643
1.05537
1.05922
1.09782
1.2754
1.89471
2.64021
2.93987
3.11103
3.19962
3.19503
3.1768
3.12896
3.09324
3.07378
3.0178
2.92708
2.86052
2.81127
2.76611
2.74012
2.72749
2.71085
2.7597
2.95823
3.47167
4.23553
4.8997
5.35007
5.5341
5.62476
5.60925
5.53611
5.39684
5.17656
5.02806
4.9237
4.82729
4.743
4.66003
4.5793
4.48982
4.3815
4.29412
4.22699
4.16335
4.09965
4.02987
3.93701
3.80337
3.68325
3.61072
3.55252
3.51233
3.48297
3.46183
3.43691
3.3995
3.33589
3.21376
3.04929
2.95437
2.92084
2.90169
2.89181
2.869
2.83985
2.81023
2.77399
2.71805
2.62373
2.52119
2.45969
2.42447
2.39582
2.36904
2.34784
2.33165
2.31515
2.28773
2.2276
2.1521
2.10578
2.07869
2.0535
2.03031
2.0106
1.99039
1.96933
1.94129
1.88785
1.81883
1.78254
1.76671
1.75063
1.73179
1.7105
1.6873
1.66127
1.63356
1.60492
1.58093
1.56094
1.53739
1.51039
1.48617
1.46398
1.44696
1.43702
1.42309
1.39668
1.35991
1.32949
1.31419
1.30087
1.28543
1.27196
1.2622
1.2532
1.23872
1.21307
1.18281
1.16526
1.15579
1.14575
1.13323
1.1195
1.10707
1.09602
1.08715
1.08165
1.07747
1.07305
1.06802
1.06206
1.05526
1.04542
1.02843
1.01226
1.00528
0.998775
0.989636
0.979127
0.967837
0.958832
0.953005
0.947518
0.941128
0.935256
0.920989
3.77727
3.77294
3.7601
3.69302
3.54398
3.28323
2.97037
2.69074
2.40363
2.13239
1.94322
1.78316
1.61538
1.4772
1.38643
1.29896
1.18742
1.13138
1.09415
1.0439
0.990371
0.985655
0.980448
0.968952