/*--------------------------------*- C++ -*----------------------------------*\
  =========                 |
  \\      /  F ield         | OpenFOAM: The Open Source CFD Toolbox
   \\    /   O peration     | Website:  https://openfoam.org
    \\  /    A nd           | Version:  7
     \\/     M anipulation  |
\*---------------------------------------------------------------------------*/
FoamFile
{
    version     2.0;
    format      ascii;
    class       volScalarField;
    location    "0.8";
    object      T;
}
// * * * * * * * * * * * * * * * * * * * * * * * * * * * * * * * * * * * * * //

dimensions      [0 0 0 1 0 0 0];

internalField   nonuniform List<scalar> 
18432
(
1
1
1
1
1
1
1
1
1
1
1
1
1
1
1
1
1
1
1
1
1
1
1
1
1
1
1
1
1
1
1
1
1
1
1
1
1
1
1
1
1
1
1
1
1
1
1
1
1
1
1
1
1
1
1
1
1
1
1
1
1
1
1
1
1
1
1
1
1
1
1
1
1
1
1
1
1
1
1
1
1
1
1
1
1
1
1
1
1
1
1
1
1
1
1
1
1
1
1
1
1
1
1
1
1
1
1
1
1
1
1
1
1
1
1
1
1
1
1
1
1
1
1
1
1
1
1
1
1
1
1
1
1
1
1
1
1
1
1
1
1
1
1
1
1
1
1
1
1
1
1
1
1
1
1
1
1
1
1
1
1
1
1
1
1
1
1
1
1
1
1
1
1
1
1
1
1
1
1
1
1
1
1
1
1
1
1
1
1
1
1
1
1
1
1
1
1
1
1
1
1
1
1
1
1
1
1
1
1
1
1
1
1
1
1
1
1
1
1
1
1
1
1
1
1
1
1
1
1
1
1
1
1
1
1
1
1
1
1
1
1
1
1
1
1
1
1
1
1
1
1
1
1
1
1
1
1
1
1
1
1
1
1
1
1
1
1
1
1
1
1
1
1
1
1
1
1
1
1
1
1
1
1
1
1
1
1
1
1
1
1
1
1
1
1
1
1
1
1
1
1
1
1
1
1
1
1
1
1
1
1
1
1
1
1
1
1
1
1
1
1
1
1
1
1
1
1
1
1
1
1
1
1
1
1
1
1
1
1
1
1
1
1
1
1
1
1
1
1
1
1
1
1
1
1
1
1
1
1
1
1
1
1
1
1
1
1
1
1
1
1
1
1
1
1
1
1
1
1
1
1
1
1
1
1
1
1
1
1
1
1
1
1
1
1
1
1
1
1
1
1
1
1
1
1
1
1
1
1
1
1
1
1
1
1
1
1
1
1
1
1
1
1
1
1
1
1
1
1
1
1
1
1
1
1
1
1
1
1
1
1
1
1
1
1
1
1
1
1
1
1
1
1
1
1
1
1
1
1
1
1
1
1
1
1
1
1
1
1
1
1
1
1
1
1
1
1
1
1
1
1
1
1
1
1
1
1
1
1
1
1
1
1
1
1
1
1
1
1
1
1
1
1
1
1
1
1
1
1
1
1
1
1
1
1
1
1
1
1
1
1
1
1
1
1
1
1
1
1
1
1
1
1
1
1
1
1
1
1
1
1
1
1
1
1
1
1
1
1
1
1
1
1
1
1
1
1
1
1
1
1
1
1
1
1
1
1
1
1
1
1
1
1
1
1
1
1
1
1
1
1
1
1
1
1
1
1
1
1
1
1
1
1
1
1
1
1
1
1
1
1
1
1
1
1
1
1
1
1
1
1
1
1
1
1
1
1
1
1
1
1
1
1
1
1
1
1
1
1
1
1
1
1
1
1
1
1
1
1
1
1
1
1
1
1
1
1
1
1
1
1
1
1
1
1
1
1
1
1
1
1
1
1
1
1
1
1
1
1
1
1
1
1
1
1
1
1
1
1
1
1
1
1
1
1
1
1
1
1
1
1
1
1
1
1
1
1
1
1
1
1
1
1
1
1
1
1
1
1
1
1
1
1
1
1
1
1
1
1
1
1
1
1
1
1
1
1
1
1
1
1
1
1
1
1
1
1
1
1
1
1
1
1
1
1
1
1
1
1
1
1
1
1
1
1
1
1
1
1
1
1
1
1
1
1
1
1
1
1
1
1
1
1
1
1
1
1
1
1
1
1
1
1
1
1
1
1
1
1
1
1
1
1
1
1
1
1
1
1
1
1
1
1
1
1
1
1
1
1
1
1
1
1
1
1
1
1
1
1
1
1
1
1
1
1
1
1
1
1
1
1
1
1
1
1
1
1
1
1
1
1
1
1
1
1
1
1
1
1
1
1
1
1
1
1
1
1
1
1
1
1
1
1
1
1
1
1
1
1
1
1
1
1
1
1
1
1
1
1
1
1
1
1
1
1
1
1
1
1
1
1
1
1
1
1
1
1
1
1
1
1
1
1
1
1
1
1
1
1
1
1
1
1
1
1
1
1
1
1
1
1
1
1
1
1
1
1
1
1
1
1
1
1
1
1
1
1
1
1
1
1
1
1
1
1
1
1
1
1
1
1
1
1
1
1
1
1
1
1
1
1
1
1
1
1
1
1
1
1
1
1
1
1
1
1
1
1
1
1
1
1
1
1
1
1
1
1
1
1
1
1
1
1
1
1
1
1
1
1
1
1
1
1
1
1
1
1
1
1
1
1
1
1
1
1
1
1
1
1
1
1
1
1
1
1
1
1
1
1
1
1
1
1
1
1
1
1
1
1
1
1
1
1
1
1
1
1
1
1
1
1
1
1
1
1
1
1
1
1
1
1
1
1
1
1
1
1
1
1
1
1
1
1
1
1
1
1
1
1
1
1
1
1
1
1
1
1
1
1
1
1
1
1
1
1
1
1
1
1
1
1
1
1
1
1
1
1
1
1
1
1
1
1
1
1
1
1
1
1
1
1
1
1
1
1
1
1
1
1
1
1
1
1
1
1
1
1
1
1
1
1
1
1
1
1
1
1
1
1
1
1
1
1
1
1
1
1
1
1
1
1
1
1
1
1
1
1
1
1
1
1
1
1
1
1
1
1
1
1
1
1
1
1
1
1
1
1
1
1
1
1
1
1
1
1
1
1
1
1
1
1
1
1
1
1
1
1
1
1
1
1
1
1
1
1
1
1
1
1
1
1
1
1
1
1
1
1
1
1
1
1
1
1
1
1
1
1
1
1
1
1
1
1
1
1
1
1
1
1
1
1
1
1
1
1
1
1
1
1
1
1
1
1
1
1
1
1
1
1
1
1
1
1
1
1
1
1
1
1
1
1
1
1
1
1
1
1
1
1
1
1
1
1
1
1
1
1
1
1
1
1
1
1
1
1
1
1
1
1
1
1
1
1
1
1
1
1
1
1
1
1
1
1
1
1
1
1
1
1
1
1
1
1
1
1
1
1
1
1
1
1
1
1
1
1
1
1
1
1
1
1
1
1
1
1
1
1
1
1
1
1
1
1
1
1
1
1
1
1
1
1
1
1
1
1
1
1
1
1
1
1
1
1
1
1
1
1
1
1
1
1
1
1
1
1
1
1
1
1
1
1
1
1
1
1
1
1
1
1
1
1
1
1
1
1
1
1
1
1
1
1
1
1
1
1
1
1
1
1
1
1
1
1
1
1
1
1
1
1
1
1
1
1
1
1
1
1
1
1
1
1
1
1
1
1
1
1
1
1
1
1
1
1
1
1
1
1
1
1
1
1
1
1
1
1
1
1
1
1
1
1
1
1
1
1
1
1
1
1
1
1
1
1
1
1
1
1
1
1
1
1
1
1
1
1
1
1
1
1
1
1
1
1
1
1
1
1
1
1
1
1
1
1
1
1
1
1
1
1
1
1
1
1
1
1
1
1
1
1
1
1
1
1
1
1
1
1
1
1
1
1
1
1
1
1
1
1
1
1
1
1
1
1
1
1
1
1
1
1
1
1
1
1
1
1
1
1
1
1
1
1
1
1
1
1
1
1
1
1
1
1
1
1
1
1
1
1
1
1
1
1
1
1
1
1
1
1
1
1
1
1
1
1
1
1
1
1
1
1
1
1
1
1
1
1
1
1
1
1
1
1
1
1
1
1
1
1
1
1
1
1
1
1
1
1
1
1
1
1
1
1
1
1
1
1
1
1
1
1
1
1
1
1
1
1
1
1
1
1
1
1
1
1
1
1
1
1
1
1
1
1
1
1
1
1
1
1
1
1
1
1
1
1
1
1
1
1
1
1
1
1
1
1
1
1
1
1
1
1
1
1
1
1
1
1
1
1
1
1
1
1
1
1
1
1
1
1
1
1
1
1
1
1
1
1
1
1
1
1
1
1
1
1
1
1
1
1
1
1
1
1
1
1
1
1
1
1
1
1
1
1
1
1
1
1
1
1
1
1
1
1
1
1
1
1
1
1
1
1
1
1
1
1
1
1
1
1
1
1
1
1
1
1
1
1
1
1
1
1
1
1
1
1
1
1
1
1
1
1
1
1
1
1
1
1
1
1
1
1
1
1
1
1
1
1
1
1
1
1
1
1
1
1
1
1
1
1
1
1
1
1
1
1
1
1
1
1
1
1
1
1
1
1
1
1
1
1
1
1
1
1
1
1
1
1
1
1
1
1
1
1
1
1
1
1
1
1
1
1
1
1
1
1
1
1
1
1
1
1
1
1
1
1
1
1
1
1
1
1
1
1
1
1
1
1
1
1
1
1
1
1
1
1
1
1
1
1
1
1
1
1
1
1
1
1
1
1
1
1
1
1
1
1
1
1
1
1
1
1
1
1
1
1
1
1
1
1
1
1
1
1
1
1
1
1
1
1
1
1
1
1
1
1
1
1
1
1
1
1
1
1
1
1
1
1
1
1
1
1
1
1
1
1
1
1
1
1
1
1
1
1
1
1
1
1
1
1
1
1
1
1
1
1
1
1
1
1
1
1
1
1
1
1
1
1
1
1
1
1
1
1
1
1
1
1
1
1
1
1
1
1
1
1
1
1
1
1
1
1
1
1
1
1
1
1
1
1
1
1
1
1
1
1
1
1
1
1
1
1
1
1
1
1
1
1
1
1
1
1
1
1
1
1
1
1
1
1
1
1
1
1
1
1
1
1
1
1
1
1
1
1
1
1
1
1
1
1
1
1
1
1
1
1
1
1
1
1
1
1
1
1
1
1
1
1
1
1
1
1
1
1
1
1
1
1
1
1
1
1
1
1
1
1
1
1
1
1
1
1
1
1
1
1
1
1
1
1
1
1
1
1
1
1
1
1
1
1
1
1
1
1
1
1
1
1
1
1
1
1
1
1
1
1
1
1
1
1
1
1
1
1
1
1
1
1
1
1
1
1
1
1
1
1
1
1
1
1
1
1
1
1
1
1
1
1
1
1
1
1
1
1
1
1
1
1
1
1
1
1
1
1
1
1
1
1
1
1
1
1
1
1
1
1
1
1
1
1
1
1
1
1
1
1
1
1
1
1
1
1
1
1
1
1
1
1
1
1
1
1
1
1
1
1
1
1
1
1
1
1
1
1
1
1
1
1
1
1
1
1
1
1
1
1
1
1
1
1
1
1
1
1
1
1
1
1
1
1
1
1
1
1
1
1
1
1
1
1
1
1
1
1
1
1
1
1
1
1
1
1
1
1
1
1
1
1
1
1
1
1
1
1
1
1
1
1
1
1
1
1
1
1
1
1
1
1
1
1
1
1
1
1
1
1
1
1
1
1
1
1
1
1
1
1
1
1
1
1
1
1
1
1
1
1
1
1
1
1
1
1
1
1
1
1
1
1
1
1
1
1
1
1
1
1
1
1
1
1
1
1
1
1
1
1
1
1
1
1
1
1
1
1
1
1
1
1
1
1
1
1
1
1
1
1
1
1
1
1
1
1
1
1
1
1
1
1
1
1
1
1
1
1
1
1
1
1
1
1
1
1
1
1
1
1
1
1
1
1
1
1
1
1
1
1
1
1
1
1
1
1
1
1
1
1
1
1
1
1
1
1
1
1
1
1
1
1
1
1
1
1
1
1
1
1
1
1
1
1
1
1
1
1
1
1
1
1
1
1
1
1
1
1
1
1
1
1
1
1
1
1
1
1
1
1
1
1
1
1
1
1
1
1
1
1
1
1
1
1
1
1
1
1
1
1
1
1
1
1
1
1
1
1
1
1
1
1
1
1
1
1
1
1
1
1
1
1
1
1
1
1
1
1
1
1
1
1
1
1
1
1
1
1
1
1
1
1
1
1
1
1
1
1
1
1
1
1
1
1
1
1
1
1
1
1
1
1
1
1
1
1
1
1
1
1
1
1
1
1
1
1
1
1
1
1
1
1
1
1
1
1
1
1
1
1
1
1
1
1
1
1
1
1
1
1
1
1
1
1
1
1
1
1
1
1
1
1
1
1
1
1
1
1
1
1
1
1
1
1
1
1
1
1
1
1
1
1
1
1
1
1
1
1
1
1
1
1
1
1
1
1
1
1
1
1
1
1
1
1
1
1
1
1
1
1
1
1
1
1
1
1
1
1
1
1
1
1
1
1
1
1
1
1
1
1
1
1
1
1
1
1
1
1
1
1
1
1
1
1
1
1
1
1
1
1
1
1
1
1
1
1
1
1
1
1
1
1
1
1
1
1
1
1
1
1
1
1
1
1
1
1
1
1
1
1
1
1
1
1
1
1
1
1
1
1
1
1
1
1
1
1
1
1
1
1
1
1
1
1
1
1
1
1
1
1
1
1
1
1
1
1
1
1
1
1
1
1
1
1
1
1
1
1
1
1
1
1
1
1
1
1
1
1
1
1
1
1
1
1
1
1
1
1
1
1
1
1
1
1
1
1
1
1
1
1
1
1
1
1
1
1
1
1
1
1
1
1
1
1
1
1
1
1
1
1
1
1
1
1
1
1
1
1
1
1
1
1
1
1
1
1
1
1
1
1
1
1
1
1
1
1
1
1
1
1
1
1
1
1
1
1
1
1
1
1
1
1
1
1
1
1
1
1
1
1
1
1
1
1
1
1
1
1
1
1
1
1
1
1
1
1
1
1
1
1
1
1
1
1
1
1
1
1
1
1
1
1
1
1
1
1
1
1
1
1
1
1
1
1
1
1
1
1
1
1
1
1
1
1
1
1
1
1
1
1
1
1
1
1
1
1
1
1
1
1
1
1
1
1
1
1
1
1
1
1
1
1
1
1
1
1
1
1
1
1
1
1
1
1
1
1
1
1
1
1
1
1
1
1
1
1
1
1
1
1
1
1
1
1
1
1
1
1
1
1
1
1
1
1
1
1
1
1
1
1
1
1
1
1
1
1
1
1
1
1
1
1
1
1
1
1
1
1
1
1.07781
1.18187
1.2836
1.37661
1.47962
1.55619
1.61945
1.67079
1.69545
1.68873
1.65863
1.6141
1.57424
1.54086
1.52516
1.51279
1.51258
1.51501
1.52037
1.52583
1.53004
1.53197
1.53352
1.53554
1.53796
1.54009
1.54134
1.5419
1.5426
1.54424
1.54606
1.54662
1.54664
1.54636
1.54541
1.54435
1.54386
1.54379
1.54394
1.54431
1.54459
1.54502
1.54523
1.54535
1.54546
1.54552
1.54551
1.54577
1.00059
1.00479
1.02681
1.06764
1.12866
1.21651
1.29919
1.37931
1.45232
1.50563
1.52748
1.56165
1.56886
1.56298
1.55251
1.54573
1.54036
1.53497
1.53383
1.53333
1.53471
1.537
1.53914
1.54064
1.54176
1.54298
1.54397
1.54411
1.54429
1.54506
1.54623
1.54723
1.54778
1.54783
1.5475
1.54686
1.54654
1.54661
1.54701
1.54754
1.54795
1.54808
1.54801
1.54782
1.54744
1.54691
1.54672
1.54723
1
0.999992
1.00002
1.00002
1.00045
1.00466
1.02116
1.07506
1.18183
1.34793
1.49796
1.58412
1.62545
1.62344
1.6124
1.59677
1.58152
1.56007
1.54822
1.5474
1.54878
1.551
1.5531
1.55348
1.55368
1.55335
1.55393
1.55403
1.55385
1.55382
1.55405
1.55453
1.55444
1.55415
1.55364
1.55302
1.55272
1.55275
1.5531
1.55383
1.55455
1.5547
1.55446
1.5539
1.55319
1.55236
1.55173
1.55267
1
1
1
1
0.999999
1
0.999994
1.00004
1.00194
1.02736
1.15669
1.32989
1.51508
1.5769
1.60916
1.60544
1.59432
1.59175
1.58482
1.57821
1.57529
1.57059
1.56823
1.56618
1.56577
1.56622
1.56765
1.56899
1.56925
1.56902
1.56854
1.56804
1.56753
1.5668
1.56612
1.56516
1.56411
1.56366
1.56368
1.56393
1.56408
1.56387
1.5631
1.562
1.56088
1.56013
1.5597
1.56065
1
1
1
1
1
1
1
1
1
0.999968
1.00089
1.0147
1.11342
1.29388
1.46605
1.58382
1.60603
1.61763
1.615
1.60693
1.59169
1.57913
1.57391
1.57216
1.57203
1.57258
1.57452
1.57676
1.57851
1.5797
1.58017
1.58013
1.57975
1.57884
1.5781
1.57717
1.57606
1.57549
1.57545
1.57546
1.57519
1.57436
1.57314
1.57167
1.57035
1.56959
1.56896
1.56975
1
1
1
1
1
1
1
1
1
0.999999
0.999999
0.999981
1.0003
1.01139
1.07616
1.26376
1.43006
1.56082
1.60139
1.59787
1.59735
1.59124
1.58422
1.58083
1.57908
1.57771
1.57758
1.5781
1.57942
1.58137
1.58365
1.58497
1.58477
1.58421
1.58337
1.5825
1.58184
1.58174
1.58187
1.58184
1.58135
1.58043
1.57941
1.5785
1.5778
1.5774
1.57682
1.5778
1
1
1
1
1
1
1
1
1
1
1
0.999999
0.999999
0.999988
1.00012
1.00826
1.06847
1.21488
1.39685
1.50957
1.58553
1.59701
1.59497
1.59199
1.58801
1.58282
1.57829
1.57799
1.57852
1.57994
1.58154
1.58341
1.58415
1.58398
1.5833
1.58299
1.58309
1.58368
1.58429
1.5843
1.58396
1.58334
1.58287
1.58262
1.58241
1.58226
1.58192
1.58253
1
1
1
1
1
1
1
1
1
1
1
1
1
0.999999
0.999999
0.99999
1.00015
1.00425
1.05781
1.18717
1.37445
1.4828
1.5495
1.58082
1.58398
1.58309
1.57986
1.57937
1.57909
1.57883
1.57898
1.57892
1.57985
1.58101
1.58164
1.58223
1.58293
1.58389
1.58468
1.58473
1.58448
1.58388
1.58354
1.58352
1.58349
1.58339
1.58335
1.58352
1
1
1
1
1
1
1
1
1
1
1
1
1
1
1
0.999999
0.999999
0.999993
1.00016
1.0037
1.04448
1.18429
1.34079
1.47755
1.52358
1.5524
1.56872
1.57436
1.57438
1.57263
1.57319
1.57399
1.57506
1.57658
1.57828
1.57995
1.58145
1.58267
1.58315
1.58315
1.58304
1.58284
1.58255
1.58245
1.5825
1.58257
1.58272
1.58282
1
1
1
1
1
1
1
1
1
1
1
1
1
1
1
1
1
0.999999
0.999999
0.999994
1.00011
1.00467
1.03597
1.1669
1.32285
1.46315
1.52879
1.5444
1.5571
1.55961
1.56286
1.56488
1.56581
1.56748
1.57007
1.57267
1.57492
1.57644
1.57742
1.57802
1.57848
1.57908
1.57957
1.57989
1.58022
1.58058
1.58118
1.58119
1
1
1
1
1
1
1
1
1
1
1
1
1
1
1
1
1
1
1
1
1
0.999995
1.00008
1.0041
1.03747
1.14931
1.32415
1.45043
1.52868
1.54932
1.55328
1.55696
1.5588
1.5604
1.56225
1.56379
1.5656
1.56771
1.56962
1.57086
1.5717
1.57269
1.57346
1.57403
1.5748
1.57562
1.5769
1.5772
1
1
1
1
1
1
1
1
1
1
1
1
1
1
1
1
1
1
1
1
1
1
1
0.999996
1.00012
1.0032
1.04545
1.15458
1.32711
1.44476
1.51959
1.54885
1.55682
1.55972
1.5619
1.56163
1.56163
1.56304
1.5651
1.56628
1.56697
1.56731
1.56751
1.56799
1.56904
1.57014
1.57169
1.57212
1
1
1
1
1
1
1
1
1
1
1
1
1
1
1
1
1
1
1
1
1
1
1
0.999999
1
0.999996
1.00026
1.00386
1.04645
1.17609
1.34092
1.45394
1.51085
1.54307
1.55493
1.55594
1.55711
1.55922
1.5608
1.56214
1.56293
1.56301
1.56335
1.56396
1.5649
1.56603
1.56753
1.56777
1
1
1
1
1
1
1
1
1
1
1
1
1
1
1
1
1
1
1
1
1
1
1
1
1
0.999999
1
0.999997
1.00035
1.00656
1.05207
1.20249
1.36432
1.48811
1.51972
1.53396
1.54432
1.55071
1.55292
1.55456
1.55639
1.55804
1.55899
1.55982
1.5608
1.56169
1.56326
1.56332
1
1
1
1
1
1
1
1
1
1
1
1
1
1
1
1
1
1
1
1
1
1
1
1
1
1
1
1
1
1
1.00048
1.01216
1.07257
1.24221
1.39888
1.50895
1.54093
1.54361
1.54727
1.5492
1.55119
1.55297
1.55429
1.55527
1.55659
1.55828
1.55976
1.55977
1
1
1
1
1
1
1
1
1
1
1
1
1
1
1
1
1
1
1
1
1
1
1
1
1
1
1
1
1
1
0.999999
1.00003
1.001
1.02159
1.11069
1.29717
1.43975
1.51952
1.55164
1.55339
1.55685
1.55748
1.55703
1.55616
1.55634
1.55727
1.55779
1.55766
1
1
1
1
1
1
1
1
1
1
1
1
1
1
1
1
1
1
1
1
1
1
1
1
1
1
1
1
1
1
1
1
0.999999
1.00012
1.00267
1.04185
1.17489
1.35985
1.47193
1.52574
1.5531
1.5563
1.55561
1.55663
1.55747
1.55806
1.55826
1.55792
1
1
1
1
1
1
1
1
1
1
1
1
1
1
1
1
1
1
1
1
1
1
1
1
1
1
1
1
1
1
1
1
1
1
1
1.0005
1.00832
1.07986
1.25529
1.43803
1.51538
1.53115
1.54188
1.55022
1.55402
1.55554
1.55617
1.55609
1
1
1
1
1
1
1
1
1
1
1
1
1
1
1
1
1
1
1
1
1
1
1
1
1
1
1
1
1
1
1
1
1
1
1
0.999999
1.00002
1.00206
1.02802
1.15736
1.34849
1.49204
1.54621
1.54946
1.55297
1.5539
1.55351
1.55368
1
1
1
1
1
1
1
1
1
1
1
1
1
1
1
1
1
1
1
1
1
1
1
1
1
1
1
1
1
1
1
1
1
1
1
1
1
1
1.00024
1.00863
1.0792
1.26481
1.43988
1.52625
1.558
1.55991
1.55914
1.55838
1
1
1
1
1
1
1
1
1
1
1
1
1
1
1
1
1
1
1
1
1
1
1
1
1
1
1
1
1
1
1
1
1
1
1
1
1
1
1
1.00004
1.00187
1.03548
1.18544
1.38938
1.49344
1.53414
1.55689
1.55743
1
1
1
1
1
1
1
1
1
1
1
1
1
1
1
1
1
1
1
1
1
1
1
1
1
1
1
1
1
1
1
1
1
1
1
1
1
1
1
1
1
1.0006
1.01262
1.11445
1.31312
1.48902
1.53615
1.54438
1
1
1
1
1
1
1
1
1
1
1
1
1
1
1
1
1
1
1
1
1
1
1
1
1
1
1
1
1
1
1
1
1
1
1
1
1
1
1
1
1
1
1.00009
1.00567
1.05954
1.26063
1.44424
1.54321
1
1
1
1
1
1
1
1
1
1
1
1
1
1
1
1
1
1
1
1
1
1
1
1
1
1
1
1
1
1
1
1
1
1
1
1
1
1
1
1
1
1
1
1.00003
1.00153
1.04007
1.19584
1.42047
1
1
1
1
1
1
1
1
1
1
1
1
1
1
1
1
1
1
1
1
1
1
1
1
1
1
1
1
1
1
1
1
1
1
1
1
1
1
1
1
1
1
1
1
1
1.00096
1.01857
1.13965
1
1
1
1
1
1
1
1
1
1
1
1
1
1
1
1
1
1
1
1
1
1
1
1
1
1
1
1
1
1
1
1
1
1
1
1
1
1
1
1
1
1
1
1
1
1
1.00027
1.00685
1
1
1
1
1
1
1
1
1
1
1
1
1
1
1
1
1
1
1
1
1
1
1
1
1
1
1
1
1
1
1
1
1
1
1
1
1
1
1
1
1
1
1
1
1
1
1
0.99994
1
1
1
1
1
1
1
1
1
1
1
1
1
1
1
1
1
1
1
1
1
1
1
1
1
1
1
1
1
1
1
1
1
1
1
1
1
1
1
1
1
1
1
1
1
1
1
0.999982
1
1
1
1
1
1
1
1
1
1
1
1
1
1
1
1
1
1
1
1
1
1
1
1
1
1
1
1
1
1
1
1
1
1
1
1
1
1
1
1
1
1
1
1
1
1
1
0.999998
1
1
1
1
1
1
1
1
1
1
1
1
1
1
1
1
1
1
1
1
1
1
1
1
1
1
1
1
1
1
1
1
1
1
1
1
1
1
1
1
1
1
1
1
1
1
1
1
1
1
1
1
1
1
1
1
1
1
1
1
1
1
1
1
1
1
1
1
1
1
1
1
1
1
1
1
1
1
1
1
1
1
1
1
1
1
1
1
1
1
1
1
1
1
1
1
1
1
1
1
1
1
1
1
1
1
1
1
1
1
1
1
1
1
1
1
1
1
1
1
1
1
1
1
1
1
1
1
1
1
1
1
1
1
1
1
1
1
1
1
1
1
1
1
1
1
1
1
1
1
1
1
1
1
1
1
1
1
1
1
1
1
1
1
1
1
1
1
1
1
1
1
1
1
1
1
1
1
1
1
1
1
1
1
1
1
1
1
1
1
1
1
1
1
1
1
1
1
1
1
1
1
1
1
1
1
1
1
1
1
1
1
1
1
1
1
1
1
1
1
1
1
1
1
1
1
1
1
1
1
1
1
1
1
1
1
1
1
1
1
1
1
1
1
1
1
1
1
1
1
1
1
1
1
1
1
1
1
1
1
1
1
1
1
1
1
1
1
1
1
1
1
1
1
1
1
1
1
1
1
1
1
1
1
1
1
1
1
1
1
1
1
1
1
1
1
1
1
1
1
1
1
1
1
1
1
1
1
1
1
1
1
1
1
1
1
1
1
1
1
1
1
1
1
1
1
1
1
1
1
1
1
1
1
1
0.999998
1
1
1
1
1
1
1
1
1
1
1
1
1
1
1
1
1
1
1
1
1
1
1
1
1
1
1
1
1
1
1
1
1
1
1
1
1
1
1
1
1
1
1
1
1
1
1
0.999982
1
1
1
1
1
1
1
1
1
1
1
1
1
1
1
1
1
1
1
1
1
1
1
1
1
1
1
1
1
1
1
1
1
1
1
1
1
1
1
1
1
1
1
1
1
1
1
0.99994
1
1
1
1
1
1
1
1
1
1
1
1
1
1
1
1
1
1
1
1
1
1
1
1
1
1
1
1
1
1
1
1
1
1
1
1
1
1
1
1
1
1
1
1
1
1
1.00027
1.00686
1
1
1
1
1
1
1
1
1
1
1
1
1
1
1
1
1
1
1
1
1
1
1
1
1
1
1
1
1
1
1
1
1
1
1
1
1
1
1
1
1
1
1
1
1
1.00096
1.01856
1.13968
1
1
1
1
1
1
1
1
1
1
1
1
1
1
1
1
1
1
1
1
1
1
1
1
1
1
1
1
1
1
1
1
1
1
1
1
1
1
1
1
1
1
1
1.00003
1.00153
1.04007
1.19585
1.42045
1
1
1
1
1
1
1
1
1
1
1
1
1
1
1
1
1
1
1
1
1
1
1
1
1
1
1
1
1
1
1
1
1
1
1
1
1
1
1
1
1
1
1.00009
1.00567
1.05954
1.26062
1.44426
1.5432
1
1
1
1
1
1
1
1
1
1
1
1
1
1
1
1
1
1
1
1
1
1
1
1
1
1
1
1
1
1
1
1
1
1
1
1
1
1
1
1
1
1.0006
1.01262
1.11445
1.31312
1.48902
1.53615
1.54438
1
1
1
1
1
1
1
1
1
1
1
1
1
1
1
1
1
1
1
1
1
1
1
1
1
1
1
1
1
1
1
1
1
1
1
1
1
1
1
1.00004
1.00187
1.03548
1.18544
1.38938
1.49344
1.53414
1.55689
1.55743
1
1
1
1
1
1
1
1
1
1
1
1
1
1
1
1
1
1
1
1
1
1
1
1
1
1
1
1
1
1
1
1
1
1
1
1
1
1
1.00024
1.00863
1.0792
1.26481
1.43988
1.52625
1.558
1.55991
1.55914
1.55838
1
1
1
1
1
1
1
1
1
1
1
1
1
1
1
1
1
1
1
1
1
1
1
1
1
1
1
1
1
1
1
1
1
1
1
0.999999
1.00002
1.00206
1.02802
1.15736
1.34849
1.49204
1.54621
1.54946
1.55297
1.5539
1.55351
1.55368
1
1
1
1
1
1
1
1
1
1
1
1
1
1
1
1
1
1
1
1
1
1
1
1
1
1
1
1
1
1
1
1
1
1
1
1.0005
1.00832
1.07986
1.25529
1.43803
1.51538
1.53115
1.54188
1.55022
1.55402
1.55554
1.55617
1.55609
1
1
1
1
1
1
1
1
1
1
1
1
1
1
1
1
1
1
1
1
1
1
1
1
1
1
1
1
1
1
1
1
0.999999
1.00012
1.00267
1.04185
1.17489
1.35985
1.47193
1.52574
1.5531
1.5563
1.55561
1.55663
1.55747
1.55806
1.55826
1.55792
1
1
1
1
1
1
1
1
1
1
1
1
1
1
1
1
1
1
1
1
1
1
1
1
1
1
1
1
1
1
0.999999
1.00003
1.001
1.02159
1.11069
1.29717
1.43975
1.51952
1.55164
1.55339
1.55685
1.55748
1.55703
1.55616
1.55634
1.55727
1.55779
1.55766
1
1
1
1
1
1
1
1
1
1
1
1
1
1
1
1
1
1
1
1
1
1
1
1
1
1
1
1
1
1
1.00048
1.01216
1.07257
1.24221
1.39888
1.50895
1.54093
1.54361
1.54727
1.5492
1.55119
1.55297
1.55429
1.55527
1.55659
1.55828
1.55976
1.55977
1
1
1
1
1
1
1
1
1
1
1
1
1
1
1
1
1
1
1
1
1
1
1
1
1
0.999999
1
0.999997
1.00035
1.00656
1.05207
1.20249
1.36432
1.48811
1.51972
1.53396
1.54432
1.55071
1.55292
1.55456
1.55639
1.55804
1.55899
1.55982
1.5608
1.56169
1.56326
1.56332
1
1
1
1
1
1
1
1
1
1
1
1
1
1
1
1
1
1
1
1
1
1
1
0.999999
1
0.999996
1.00026
1.00386
1.04645
1.17609
1.34092
1.45395
1.51085
1.54307
1.55493
1.55594
1.55711
1.55922
1.5608
1.56214
1.56293
1.56301
1.56335
1.56396
1.5649
1.56603
1.56753
1.56777
1
1
1
1
1
1
1
1
1
1
1
1
1
1
1
1
1
1
1
1
1
1
1
0.999996
1.00012
1.0032
1.04545
1.15458
1.32711
1.44476
1.51959
1.54885
1.55682
1.55972
1.5619
1.56163
1.56163
1.56304
1.5651
1.56628
1.56697
1.56731
1.56751
1.56799
1.56904
1.57014
1.57169
1.57212
1
1
1
1
1
1
1
1
1
1
1
1
1
1
1
1
1
1
1
1
1
0.999995
1.00008
1.0041
1.03747
1.14931
1.32415
1.45043
1.52868
1.54932
1.55328
1.55696
1.5588
1.5604
1.56225
1.56379
1.5656
1.56771
1.56962
1.57086
1.5717
1.57269
1.57346
1.57403
1.5748
1.57562
1.5769
1.5772
1
1
1
1
1
1
1
1
1
1
1
1
1
1
1
1
1
0.999999
0.999999
0.999994
1.00011
1.00467
1.03597
1.1669
1.32285
1.46315
1.52879
1.5444
1.5571
1.55961
1.56286
1.56488
1.56581
1.56748
1.57007
1.57267
1.57492
1.57644
1.57742
1.57802
1.57848
1.57908
1.57957
1.57989
1.58022
1.58058
1.58118
1.58119
1
1
1
1
1
1
1
1
1
1
1
1
1
1
1
0.999999
0.999999
0.999993
1.00016
1.0037
1.04448
1.18429
1.34079
1.47755
1.52358
1.5524
1.56872
1.57436
1.57438
1.57263
1.57319
1.57399
1.57506
1.57658
1.57828
1.57995
1.58145
1.58267
1.58315
1.58315
1.58304
1.58284
1.58255
1.58245
1.5825
1.58257
1.58272
1.58282
1
1
1
1
1
1
1
1
1
1
1
1
1
0.999999
0.999999
0.99999
1.00015
1.00425
1.05781
1.18717
1.37445
1.4828
1.5495
1.58082
1.58398
1.5831
1.57986
1.57937
1.57909
1.57883
1.57898
1.57892
1.57985
1.58101
1.58164
1.58223
1.58293
1.58389
1.58468
1.58473
1.58448
1.58388
1.58354
1.58352
1.58349
1.58339
1.58335
1.58352
1
1
1
1
1
1
1
1
1
1
1
0.999999
0.999999
0.999988
1.00012
1.00826
1.06847
1.21488
1.39685
1.50957
1.58553
1.59701
1.59497
1.59199
1.58801
1.58282
1.57829
1.57799
1.57852
1.57994
1.58154
1.58341
1.58415
1.58398
1.5833
1.58299
1.58309
1.58368
1.58429
1.5843
1.58396
1.58334
1.58287
1.58262
1.58241
1.58226
1.58192
1.58253
1
1
1
1
1
1
1
1
1
0.999999
0.999999
0.999981
1.0003
1.01139
1.07616
1.26376
1.43006
1.56082
1.60139
1.59787
1.59735
1.59124
1.58422
1.58083
1.57908
1.57771
1.57758
1.5781
1.57942
1.58137
1.58365
1.58497
1.58477
1.58421
1.58337
1.5825
1.58184
1.58174
1.58187
1.58184
1.58135
1.58043
1.57941
1.5785
1.5778
1.5774
1.57682
1.5778
1
1
1
1
1
1
1
1
1
0.999968
1.00089
1.0147
1.11342
1.29388
1.46605
1.58382
1.60603
1.61763
1.615
1.60693
1.59169
1.57913
1.57391
1.57216
1.57203
1.57258
1.57452
1.57676
1.57851
1.5797
1.58017
1.58013
1.57975
1.57884
1.5781
1.57717
1.57606
1.57549
1.57545
1.57546
1.57519
1.57436
1.57314
1.57167
1.57035
1.56959
1.56896
1.56975
1
1
1
1
0.999999
1
0.999994
1.00004
1.00194
1.02736
1.15669
1.32989
1.51509
1.5769
1.60916
1.60544
1.59432
1.59175
1.58482
1.57821
1.57529
1.57059
1.56823
1.56618
1.56577
1.56622
1.56765
1.56899
1.56925
1.56902
1.56854
1.56804
1.56753
1.5668
1.56612
1.56516
1.56411
1.56366
1.56368
1.56393
1.56408
1.56387
1.5631
1.562
1.56088
1.56013
1.5597
1.56065
1
0.999992
1.00002
1.00002
1.00045
1.00466
1.02116
1.07506
1.18183
1.34793
1.49796
1.58412
1.62545
1.62344
1.6124
1.59677
1.58152
1.56007
1.54822
1.5474
1.54878
1.551
1.5531
1.55348
1.55368
1.55335
1.55393
1.55403
1.55385
1.55382
1.55405
1.55453
1.55444
1.55415
1.55364
1.55302
1.55272
1.55275
1.5531
1.55383
1.55455
1.5547
1.55446
1.5539
1.55319
1.55236
1.55173
1.55267
1.00059
1.00479
1.02681
1.06764
1.12866
1.21651
1.2992
1.37931
1.45232
1.50563
1.52748
1.56165
1.56886
1.56298
1.55251
1.54573
1.54036
1.53497
1.53383
1.53333
1.53471
1.537
1.53914
1.54064
1.54176
1.54298
1.54397
1.54411
1.54429
1.54505
1.54623
1.54723
1.54778
1.54783
1.5475
1.54686
1.54654
1.54661
1.54701
1.54754
1.54795
1.54808
1.54801
1.54782
1.54744
1.54691
1.54672
1.54723
1.07781
1.18187
1.2836
1.37661
1.47962
1.55619
1.61945
1.67079
1.69545
1.68873
1.65863
1.6141
1.57424
1.54086
1.52516
1.51279
1.51258
1.51501
1.52037
1.52583
1.53004
1.53197
1.53352
1.53554
1.53796
1.54009
1.54134
1.5419
1.5426
1.54424
1.54606
1.54662
1.54664
1.54636
1.54541
1.54435
1.54386
1.54379
1.54394
1.54431
1.54459
1.54502
1.54523
1.54535
1.54546
1.54552
1.54551
1.54577
1.40397
1.23239
1.10566
1.05003
0.993444
0.982067
0.999392
1.03041
1.03881
1.04938
1.08284
1.11082
1.10962
1.10685
1.11023
1.11221
1.11332
1.11678
1.12343
1.12339
1.12183
1.11919
1.11715
1.1145
1.11056
1.10854
1.1087
1.10854
1.10763
1.10618
1.10525
1.10447
1.10355
1.10328
1.10335
1.10389
1.10471
1.10474
1.10461
1.10413
1.10328
1.10309
1.10309
1.10338
1.10433
1.10468
1.10459
1.10432
1.10374
1.10269
1.10189
1.10236
1.11322
1.1701
1.27324
1.46327
1.66605
1.81028
1.92561
2.01352
2.0421
2.06055
2.04092
2.0018
1.96175
1.92896
1.91231
1.90599
1.89919
1.89196
1.88073
1.86636
1.84992
1.83439
1.82877
1.82434
1.81893
1.8128
1.80558
1.79796
1.78657
1.76661
1.74863
1.74129
1.73561
1.72957
1.72313
1.71508
1.70179
1.68331
1.67476
1.67098
1.66733
1.66322
1.65788
1.65132
1.63992
1.61721
1.5974
1.5908
1.58651
1.58223
1.57905
1.57635
1.57295
1.56865
1.56086
1.54528
1.52484
1.51232
1.50572
1.50087
1.49728
1.49433
1.49135
1.48773
1.48234
1.47258
1.45661
1.44083
1.43147
1.4252
1.42147
1.41924
1.41663
1.41319
1.40902
1.40434
1.39845
1.38881
1.37173
1.35543
1.34957
1.34631
1.34316
1.34036
1.33781
1.33519
1.33218
1.32792
1.3194
1.30301
1.29091
1.28733
1.28479
1.28194
1.27882
1.27541
1.2707
1.2608
1.24613
1.24019
1.23813
1.23613
1.23416
1.23217
1.22959
1.22657
1.2213
1.20846
1.19375
1.18921
1.18675
1.18437
1.1825
1.18057
1.17805
1.1752
1.17188
1.16602
1.1556
1.14819
1.14589
1.1445
1.1431
1.14251
1.14261
1.14172
1.13763
1.13166
1.12431
1.1143
1.10486
1.10053
1.09806
1.09595
1.09452
1.0943
1.09429
1.09402
1.09211
1.08426
1.50182
1.42095
1.3158
1.25312
1.19972
1.12662
1.10507
1.08961
1.06456
1.05984
1.0641
1.06502
1.06297
1.06383
1.06909
1.07767
1.08385
1.0894
1.09844
1.10188
1.10133
1.10075
1.10147
1.10233
1.10168
1.10144
1.10183
1.10229
1.10184
1.10089
1.10079
1.10056
1.10019
1.09996
1.10003
1.10024
1.10021
1.10014
1.09998
1.09934
1.0987
1.09847
1.0985
1.09893
1.09994
1.10042
1.10032
1.10007
1.09919
1.09932
1.10106
1.11935
1.22591
1.36162
1.44536
1.5062
1.55608
1.62356
1.69456
1.77745
1.83466
1.88863
1.92839
1.95305
1.96271
1.95008
1.93255
1.9202
1.91455
1.90457
1.891
1.87505
1.85889
1.84411
1.83648
1.83108
1.82373
1.81622
1.8094
1.80199
1.7909
1.77338
1.75677
1.7492
1.74285
1.73621
1.72905
1.72018
1.70698
1.69018
1.68125
1.67686
1.67219
1.66717
1.66149
1.65434
1.64299
1.62387
1.60556
1.59827
1.59368
1.58876
1.5843
1.58055
1.57694
1.57253
1.56414
1.54754
1.52877
1.5189
1.51373
1.50836
1.50346
1.49963
1.49607
1.49211
1.48662
1.47646
1.46059
1.44647
1.43919
1.43419
1.42969
1.42627
1.42281
1.41856
1.41352
1.408
1.40161
1.39215
1.37749
1.36334
1.35691
1.35315
1.34958
1.34603
1.34275
1.33962
1.3362
1.33151
1.32327
1.3092
1.29729
1.29271
1.28974
1.28663
1.28304
1.27906
1.27402
1.26564
1.25364
1.24685
1.24354
1.24097
1.23847
1.23598
1.2331
1.22945
1.22411
1.21405
1.20044
1.19422
1.19177
1.18908
1.18646
1.18398
1.18119
1.17832
1.17543
1.171
1.1625
1.15468
1.15198
1.15042
1.14874
1.14712
1.14649
1.14487
1.14046
1.13468
1.12846
1.12064
1.11137
1.10545
1.10223
1.09972
1.09827
1.09827
1.09842
1.09832
1.09699
1.08993
1.53784
1.4984
1.43226
1.35843
1.29513
1.22124
1.16934
1.13794
1.09895
1.06059
1.0571
1.05066
1.04152
1.04198
1.04579
1.05084
1.05483
1.06004
1.06885
1.07694
1.07784
1.07856
1.08108
1.08381
1.08476
1.08628
1.08879
1.09095
1.09126
1.09103
1.09057
1.09002
1.09002
1.09012
1.09036
1.0903
1.09
1.08971
1.08918
1.08865
1.0886
1.08867
1.08915
1.09027
1.09129
1.09167
1.09146
1.09149
1.09283
1.10215
1.13891
1.25618
1.43098
1.49909
1.5302
1.53663
1.53715
1.5384
1.54804
1.57988
1.64708
1.7408
1.85061
1.92068
1.96901
1.96821
1.95638
1.93985
1.92193
1.90398
1.89297
1.88376
1.87473
1.86388
1.84721
1.82788
1.81495
1.80824
1.80364
1.79878
1.7919
1.78197
1.76882
1.7522
1.73994
1.73335
1.72699
1.71941
1.71002
1.69831
1.68389
1.67348
1.66738
1.66145
1.65524
1.64781
1.63759
1.62609
1.61645
1.60426
1.59118
1.58427
1.57949
1.57472
1.57013
1.5647
1.5557
1.5419
1.53011
1.52283
1.51453
1.5059
1.49997
1.49532
1.49056
1.48555
1.47957
1.47042
1.45837
1.44886
1.44102
1.43326
1.42849
1.42505
1.42122
1.41618
1.40988
1.40279
1.39546
1.38706
1.37709
1.36602
1.35639
1.35091
1.34694
1.34301
1.33904
1.33517
1.33142
1.32679
1.31956
1.31019
1.30138
1.29243
1.28522
1.28167
1.27857
1.27484
1.27017
1.26383
1.25603
1.24746
1.24125
1.23658
1.23309
1.23049
1.22814
1.22498
1.22056
1.21413
1.20312
1.19169
1.18749
1.18511
1.18256
1.18004
1.17701
1.17367
1.17048
1.16623
1.15878
1.15209
1.14961
1.14801
1.14616
1.14423
1.14232
1.13935
1.13503
1.12975
1.12396
1.11707
1.10866
1.10217
1.09853
1.09594
1.09438
1.09418
1.09415
1.09395
1.09289
1.08669
1.55575
1.5379
1.49866
1.44054
1.38088
1.31567
1.25669
1.21782
1.17635
1.12324
1.10747
1.09096
1.06302
1.05477
1.05536
1.05151
1.04607
1.04613
1.04929
1.05052
1.05152
1.05364
1.0591
1.06615
1.07061
1.07393
1.07681
1.07849
1.07952
1.08013
1.08023
1.08088
1.08221
1.0838
1.08432
1.08423
1.08381
1.08276
1.08101
1.0802
1.08029
1.0806
1.08134
1.08226
1.08278
1.08306
1.08365
1.08603
1.10989
1.19865
1.3053
1.4493
1.52465
1.54541
1.55368
1.55585
1.54662
1.53212
1.52987
1.5303
1.53454
1.55461
1.62249
1.7267
1.84517
1.90441
1.92944
1.92237
1.91584
1.91517
1.91537
1.91017
1.90182
1.88703
1.86196
1.83708
1.8197
1.81309
1.80916
1.80568
1.80124
1.7945
1.78212
1.76275
1.74581
1.73711
1.73112
1.72598
1.72026
1.71029
1.69375
1.67955
1.6706
1.66266
1.65458
1.64719
1.64179
1.63757
1.62995
1.61566
1.59791
1.58751
1.58362
1.57928
1.57236
1.56182
1.55102
1.54447
1.53944
1.53146
1.52053
1.50896
1.50208
1.49859
1.49439
1.48726
1.47728
1.46911
1.46343
1.45731
1.44863
1.43742
1.43082
1.42885
1.4254
1.42028
1.41363
1.40513
1.39507
1.38611
1.37858
1.36962
1.3595
1.35341
1.34914
1.34501
1.34102
1.33682
1.3319
1.32661
1.32141
1.31544
1.30731
1.29669
1.28753
1.28184
1.27806
1.27495
1.27185
1.26752
1.26033
1.25043
1.24286
1.23855
1.23468
1.23047
1.22674
1.22408
1.22131
1.217
1.20761
1.19413
1.18741
1.18465
1.18236
1.17983
1.17668
1.17298
1.16932
1.16517
1.15864
1.15292
1.15044
1.14867
1.1468
1.14473
1.14235
1.13939
1.1352
1.12948
1.12319
1.11631
1.10874
1.10254
1.09873
1.09602
1.09437
1.09393
1.09372
1.09318
1.09194
1.08619
1.56601
1.55991
1.53968
1.49966
1.4519
1.39166
1.33377
1.293
1.24864
1.19255
1.16219
1.13902
1.1056
1.08174
1.07564
1.06404
1.04851
1.04783
1.04959
1.04767
1.0468
1.04762
1.04993
1.05497
1.06144
1.06624
1.07011
1.07142
1.0726
1.07411
1.07478
1.07528
1.07789
1.07958
1.07995
1.07994
1.0797
1.07907
1.07806
1.07758
1.07769
1.07824
1.07923
1.07939
1.07955
1.08001
1.08364
1.11896
1.2633
1.40194
1.47183
1.53043
1.56257
1.56698
1.56379
1.56331
1.55725
1.54038
1.52866
1.52658
1.52472
1.52403
1.5248
1.53914
1.59134
1.69131
1.79377
1.86994
1.90412
1.91956
1.92638
1.92363
1.91519
1.89584
1.87457
1.85319
1.83228
1.82419
1.81898
1.81153
1.80217
1.79236
1.78158
1.76859
1.75435
1.7442
1.73637
1.72885
1.72158
1.71326
1.7009
1.68418
1.67059
1.66166
1.65506
1.64941
1.64414
1.63921
1.63281
1.62385
1.61173
1.59673
1.58329
1.57543
1.56819
1.5605
1.5537
1.54805
1.54214
1.53571
1.52764
1.51796
1.50887
1.50048
1.49264
1.48453
1.4765
1.46936
1.46366
1.45909
1.45358
1.44575
1.43606
1.42647
1.42146
1.4173
1.41214
1.40527
1.39706
1.38967
1.38321
1.37593
1.36572
1.35481
1.34992
1.34674
1.34311
1.33891
1.33405
1.32799
1.32034
1.31286
1.30575
1.29833
1.29074
1.28512
1.2801
1.27456
1.26917
1.26521
1.26107
1.25439
1.2453
1.24061
1.23764
1.23319
1.22821
1.2237
1.21909
1.21371
1.2068
1.1989
1.19158
1.18625
1.18297
1.18014
1.17687
1.17312
1.16891
1.16407
1.16034
1.15784
1.15574
1.1537
1.15155
1.14904
1.14616
1.14283
1.13809
1.13132
1.12435
1.1177
1.11016
1.10389
1.09985
1.09689
1.09512
1.09458
1.09417
1.09324
1.09157
1.08614
1.57501
1.57123
1.56282
1.54063
1.50637
1.4592
1.40302
1.35877
1.3145
1.2644
1.22993
1.20189
1.16508
1.13436
1.12163
1.10687
1.08187
1.07451
1.0699
1.0602
1.05303
1.05258
1.05231
1.05171
1.05307
1.05656
1.06026
1.06345
1.06619
1.06919
1.0721
1.07363
1.07647
1.07849
1.07909
1.07939
1.07944
1.07897
1.07807
1.07802
1.07867
1.08012
1.08069
1.08042
1.08172
1.09467
1.15172
1.31129
1.46691
1.52586
1.55061
1.56225
1.56614
1.5664
1.56354
1.561
1.55945
1.55108
1.53656
1.52731
1.52103
1.51521
1.51185
1.5098
1.50628
1.51474
1.55003
1.636
1.74386
1.8223
1.86722
1.88358
1.8923
1.89102
1.88422
1.87007
1.84706
1.83142
1.82057
1.81032
1.80119
1.79201
1.78288
1.77254
1.75957
1.74856
1.73989
1.73203
1.72475
1.71689
1.70567
1.6884
1.67196
1.66178
1.65402
1.64925
1.64603
1.64362
1.64039
1.63457
1.6243
1.60619
1.58273
1.56908
1.5641
1.56094
1.55904
1.55493
1.55003
1.54558
1.54026
1.5317
1.51668
1.49953
1.48846
1.48163
1.47583
1.47039
1.46639
1.46376
1.4612
1.45609
1.44422
1.42962
1.42073
1.41545
1.41036
1.40554
1.40149
1.39728
1.39256
1.38596
1.37401
1.35942
1.35193
1.34839
1.34462
1.34016
1.33499
1.32906
1.32238
1.31544
1.30837
1.3024
1.29709
1.29062
1.28341
1.27686
1.27088
1.26641
1.26405
1.26069
1.25368
1.24345
1.23476
1.23014
1.22605
1.22111
1.21662
1.21337
1.21059
1.20638
1.19899
1.19004
1.1845
1.18121
1.17767
1.17334
1.16867
1.16426
1.15992
1.15589
1.15275
1.15005
1.14741
1.14475
1.14199
1.13907
1.13513
1.12873
1.1221
1.11812
1.11429
1.10976
1.10529
1.10115
1.09871
1.09778
1.0969
1.09549
1.09367
1.08822
1.58133
1.5795
1.57621
1.56577
1.54494
1.50881
1.46466
1.42261
1.37489
1.32656
1.2924
1.26042
1.22343
1.19209
1.17138
1.1495
1.11917
1.10408
1.09406
1.07997
1.06391
1.06204
1.06011
1.05634
1.05704
1.05895
1.05916
1.05922
1.06023
1.06277
1.06734
1.07231
1.07673
1.07966
1.0802
1.08037
1.08084
1.08071
1.07995
1.07971
1.08106
1.08286
1.08303
1.08647
1.12794
1.23612
1.36927
1.51903
1.56562
1.57448
1.57375
1.56613
1.56272
1.56002
1.56023
1.56013
1.56028
1.55479
1.53987
1.52264
1.512
1.50609
1.5027
1.50047
1.49593
1.49013
1.47976
1.47893
1.50151
1.57473