/*--------------------------------*- C++ -*----------------------------------*\
  =========                 |
  \\      /  F ield         | OpenFOAM: The Open Source CFD Toolbox
   \\    /   O peration     | Website:  https://openfoam.org
    \\  /    A nd           | Version:  7
     \\/     M anipulation  |
\*---------------------------------------------------------------------------*/
FoamFile
{
    version     2.0;
    format      ascii;
    class       volScalarField;
    location    "0.5";
    object      p;
}
// * * * * * * * * * * * * * * * * * * * * * * * * * * * * * * * * * * * * * //

dimensions      [1 -1 -2 0 0 0 0];

internalField   nonuniform List<scalar> 
4608
(
1
1
1
1
1
1
1
1
1
1
1
1
1
1
1
1
1
1
1
1
1
1
1
1
1
1
1
1
1
1
1
1
1
1
1
1
1
1
1
1
1
1
1
1
1
1
1
1
1
1
1
1
1
1
1
1
1
1
1
1
1
1
1
1
1
1
1
1
1
1
1
1
1
1
1
1
1
1
1
1
1
1
1
1
1
1
1
1
1
1
1
1
1
1
1
1
1
1
1
1
1
1
1
1
1
1
1
1
1
1
1
1
1
1
1
1
1
1
1
1
1
1
1
1
1
1
1
1
1
1
1
1
1
1
1
1
1
1
1
1
1
1
1
1
1
1
1
1
1
1
1
1
1
1
1
1
1
1
1
1
1
1
1
1
1
1
1
1
1
1
1
1
1
1
1
1
1
1
1
1
1
1
1
1
1
1
1
1
1
1
1
1
1
1
1
1
1
1
1
1
1
1
1
1
1
1
1
1
1
1
1
1
1
1
1
1
1
1
1
1
1
1
1
1
1
1
1
1
1
1
1
1
1
1
1
1
1
1
1
1
1
1
1
1
1
1
1
1
1
1
1
1
1
1
1
1
1
1
1
1
1
1
1
1
1
1
1
1
1
1
1
1
1
1
1
1
1
1
1
1
1
1
1
1
1
1
1
1
1
1
1
1
1
1
1
1
1
1
1
1
1
1
1
1
1
1
1
1
1
1
1
1
1
1
1
1
1
1
1
1
1
1
1
1
1
1
1
1
1
1
1
1
1
1
1
1
1
1
1
1
1
1
1
1
1
1
1
1
1
1
1
1
1
1
1
1
1
1
1
1
1
1
1
1
1
1
1
1
1
1
1
1
1
1
1
1
1
1
1
1
1
1
1
1
1
1
1
1
1
1
1
1
1
1
1
1
1
1
1
1
1
1
1
1
1
1
1
1
1
1
1
1
1
1
1
1
1
1
1
1
1
1
1
1
1
1
1
1
1
1
1
1
1
1
1
1
1
1
1
1
1
1
1
1
1
1
1
1
1
1
1
1
1
1
1
1
1
1
1
1
1
1
1
1
1
1
1
1
1
1
1
1
1
1
1
1
1
1
1
1
1
1
1
1
1
1
1
1
1
1
1
1
1
1
1
1
1
1
1
1
1
1
1
1
1
1
1
1
1
1
1
1
1
1
1
1
1
1
1
1
1
1
1
1
1
1
1
1
1
1
1
1
1
1
1
1
1
1
1
1
1
1
1
1
1
1
1
1
1
1
1
1
1
1
1
1
1
1
1
1
1
1
1
1
1
1
1
1
1
1
1
1
1
1
1
1
1
1
1
1
1
1
1
1
1
1
1
1
1
1
1
1
1
1
1
1
1
1
1
1
1
1
1
1
1
1
1
1
1
1
1
1
1
1
1
1
1
1
1
1
1
1
1
1
1
1
1
1
1
1
1
1
1
1
1
1
1
1
1
1
1
1
1
1
1
1
1
1
1
1
1
1
1
1
1
1
1
1
1
1
1
1
1
1
1
1
1
1
1
1
1
1
1
1
1
1
1
1
1
1
1
1
1
1
1
1
1
1
1
1
1
1
1
1
1
1
1
1
1
1
1
1
1
1
1
1
1
1
1
1
1
1
1
1
1
1
1
1
1
1
1
1
1
1
1
1
1
1
1
1
1
1
1
1
1
1
1
1
1
1
1
1
1
1
1
1
1
1
1
1
1
1
1
1
1
1
1
1
1
1
1
1
1
1
1
1
1
1
1.29297
1.7658
2.30976
2.99294
3.66186
4.25317
4.85967
5.3149
5.36619
5.16218
4.72032
4.20366
3.80999
3.66879
3.56823
3.5795
3.62988
3.68444
3.71931
3.72912
3.73457
3.74773
3.76382
3.76771
1.00194
1.02038
1.08984
1.20912
1.47831
1.85182
2.38009
2.98114
3.57306
3.84787
4.03407
4.04089
3.96376
3.86563
3.75279
3.73055
3.7086
3.68669
3.69946
3.71457
3.7243
3.74284
3.76245
3.76597
0.999999
0.999951
1.00023
1.00012
1.00357
1.0238
1.10773
1.36783
1.97614
3.01207
3.82409
4.31913
4.35955
4.27834
4.10417
3.86571
3.67981
3.64836
3.6707
3.70078
3.71321
3.73012
3.74932
3.75663
1
0.999998
0.999999
0.999999
0.999986
1.00003
0.999901
1.00202
1.03143
1.30958
2.01525
3.24337
3.88469
4.07944
4.06412
3.99964
3.82585
3.71592
3.7174
3.70374
3.70237
3.71772
3.73623
3.74551
1
1
1
1
0.999999
0.999999
0.999987
0.999992
0.9999
1.00161
1.04208
1.35297
2.25195
3.23167
4.0276
4.12869
4.05166
3.93118
3.82502
3.74832
3.72079
3.72306
3.73085
3.73957
1
1
1
1
1
1
1
1
0.999991
0.999991
0.999914
1.0026
1.08856
1.48469
2.5181
3.45834
4.00047
3.99029
3.92918
3.8513
3.80233
3.77305
3.72209
3.71238
1
1
1
1
1
1
1
1
1
0.999999
0.999993
0.999979
1.00008
1.00831
1.16759
1.79851
3.02353
3.57481
3.78769
3.86322
3.86
3.79262
3.73426
3.69518
1
1
1
1
1
1
1
1
1
1
1
0.999997
0.999997
0.999972
1.00122
1.03722
1.36486
2.26616
3.29849
3.81009
3.81692
3.80811
3.77586
3.73541
1
1
1
1
1
1
1
1
1
1
1
1
1
0.999996
0.999992
1.00001
1.00696
1.14761
1.72357
2.8224
3.48185
3.83555
3.85371
3.80937
1
1
1
1
1
1
1
1
1
1
1
1
1
1
0.999999
0.999999
0.999981
1.00165
1.03866
1.40651
2.32258
3.38336
3.73511
3.74723
1
1
1
1
1
1
1
1
1
1
1
1
1
1
1
1
0.999997
0.99999
1.00014
1.01404
1.22173
2.00047
3.03356
3.62788
1
1
1
1
1
1
1
1
1
1
1
1
1
1
1
1
1
0.999998
0.999997
1.00002
1.00634
1.10456
1.75317
2.79091
1
1
1
1
1
1
1
1
1
1
1
1
1
1
1
1
1
1
0.999999
0.999999
0.999999
1.00186
1.0719
1.52886
1
1
1
1
1
1
1
1
1
1
1
1
1
1
1
1
1
1
1
1
1
0.999999
1.00121
1.03395
1
1
1
1
1
1
1
1
1
1
1
1
1
1
1
1
1
1
1
1
1
1
1
1.00007
1
1
1
1
1
1
1
1
1
1
1
1
1
1
1
1
1
1
1
1
1
1
1
0.999998
1
1
1
1
1
1
1
1
1
1
1
1
1
1
1
1
1
1
1
1
1
1
1
0.999998
1
1
1
1
1
1
1
1
1
1
1
1
1
1
1
1
1
1
1
1
1
1
1
1.00007
1
1
1
1
1
1
1
1
1
1
1
1
1
1
1
1
1
1
1
1
1
0.999999
1.00121
1.03395
1
1
1
1
1
1
1
1
1
1
1
1
1
1
1
1
1
1
0.999999
0.999999
0.999999
1.00186
1.0719
1.52886
1
1
1
1
1
1
1
1
1
1
1
1
1
1
1
1
1
0.999998
0.999997
1.00002
1.00634
1.10456
1.75317
2.79091
1
1
1
1
1
1
1
1
1
1
1
1
1
1
1
1
0.999997
0.99999
1.00014
1.01404
1.22173
2.00047
3.03356
3.62788
1
1
1
1
1
1
1
1
1
1
1
1
1
1
0.999999
0.999999
0.999981
1.00165
1.03866
1.40651
2.32258
3.38336
3.73511
3.74723
1
1
1
1
1
1
1
1
1
1
1
1
1
0.999996
0.999992
1.00001
1.00696
1.14761
1.72357
2.8224
3.48185
3.83555
3.85371
3.80937
1
1
1
1
1
1
1
1
1
1
1
0.999997
0.999997
0.999972
1.00122
1.03722
1.36486
2.26616
3.29849
3.81009
3.81692
3.80811
3.77586
3.73541
1
1
1
1
1
1
1
1
1
0.999999
0.999993
0.999979
1.00008
1.00831
1.16759
1.79851
3.02353
3.57481
3.78769
3.86322
3.86
3.79262
3.73426
3.69518
1
1
1
1
1
1
1
1
0.999991
0.999991
0.999914
1.0026
1.08856
1.48469
2.5181
3.45834
4.00047
3.99029
3.92918
3.8513
3.80233
3.77305
3.72209
3.71238
1
1
1
1
0.999999
0.999999
0.999987
0.999992
0.9999
1.00161
1.04208
1.35297
2.25195
3.23167
4.0276
4.12869
4.05166
3.93118
3.82502
3.74832
3.72079
3.72306
3.73085
3.73957
1
0.999998
0.999999
0.999999
0.999986
1.00003
0.999901
1.00202
1.03143
1.30958
2.01525
3.24337
3.88469
4.07944
4.06412
3.99964
3.82585
3.71592
3.7174
3.70374
3.70237
3.71772
3.73623
3.74551
0.999999
0.999951
1.00023
1.00012
1.00357
1.0238
1.10773
1.36783
1.97614
3.01207
3.82409
4.31913
4.35955
4.27834
4.10417
3.86571
3.67981
3.64836
3.6707
3.70078
3.71321
3.73012
3.74932
3.75663
1.00194
1.02038
1.08984
1.20912
1.47831
1.85182
2.38009
2.98114
3.57306
3.84787
4.03407
4.04089
3.96376
3.86563
3.75279
3.73055
3.7086
3.68669
3.69946
3.71457
3.7243
3.74284
3.76245
3.76597
1.29297
1.7658
2.30976
2.99294
3.66186
4.25317
4.85967
5.3149
5.36619
5.16218
4.72032
4.20366
3.80999
3.66879
3.56823
3.5795
3.62988
3.68444
3.71931
3.72912
3.73457
3.74773
3.76382
3.76771
2.65399
1.727
1.10775
0.738203
0.709986
0.704387
0.667716
0.668478
0.713371
0.778101
0.816412
0.843604
0.890828
0.932059
0.929699
0.91056
0.906404
0.91526
0.925311
0.932563
0.932033
0.926391
0.913252
0.895718
0.889704
0.888757
0.892637
0.892067
0.884607
0.871353
0.858344
0.84899
0.844783
0.858555
0.912433
1.05788
1.30282
1.61606
1.91757
2.26595
2.57414
2.82262
3.033
3.24094
3.40188
3.52641
3.62397
3.64416
3.6462
3.61555
3.57061
3.56742
3.57542
3.54863
3.51633
3.47558
3.40417
3.33514
3.27464
3.22518
3.18895
3.15035
3.10664
3.05552
2.99067
2.91713
2.84504
2.77509
2.69936
2.61615
2.54159
2.48923
2.44358
2.38836
2.30971
2.1878
2.0075
1.77269
1.49765
1.26603
1.12903
1.07837
1.07013
1.06931
1.06924
1.06729
1.06066
1.04973
1.04477
1.04446
1.04457
1.04547
1.04909
1.05803
1.06653
1.06736
3.35892
2.75055
2.22774
1.69429
1.386
1.27537
1.12968
0.980323
0.941886
0.915108
0.859472
0.822458
0.833574
0.852611
0.850577
0.845602
0.851535
0.870198
0.885179
0.892287
0.893981
0.893555
0.889774
0.883304
0.881228
0.881698
0.890081
0.888669
0.881258
0.869118
0.865965
0.892178
0.981328
1.16154
1.39823
1.64281
1.84732
1.90726
1.9537
2.0125
2.09513
2.15122
2.19393
2.24293
2.32803
2.40381
2.45629
2.48445
2.50058
2.53202
2.52651
2.5189
2.56841
2.61188
2.62987
2.65804
2.67859
2.67414
2.64172
2.59092
2.56377
2.53585
2.49363
2.44205
2.38699
2.33106
2.27388
2.21
2.13676
2.05969
1.99067
1.93921
1.90149
1.87092
1.83983
1.78711
1.70308
1.60674
1.55248
1.50413
1.3996
1.23994
1.11344
1.07287
1.06703
1.0638
1.05824
1.04922
1.04472
1.0444
1.04453
1.04559
1.04965
1.05892
1.06706
1.0678
3.64992
3.31355
2.85882
2.3852
1.90915
1.62642
1.4157
1.18053
1.05314
0.998585
0.919138
0.837345
0.835095
0.849107
0.836146
0.821498
0.823193
0.839238
0.856893
0.859152
0.861029
0.87082
0.873784
0.870241
0.868652
0.873384
0.884183
0.88729
0.892833
0.923803
1.04529
1.30129
1.62312
1.82849
2.02005
2.09151
2.07298
2.04474
2.03273
2.01686
1.97907
1.92214
1.87928
1.84973
1.81132
1.77269
1.77381
1.76954
1.75559
1.77266
1.80747
1.81762
1.84357
1.92412
2.00238
2.06758
2.17041
2.22604
2.20936
2.16497
2.14001
2.11515
2.0734
2.01947
1.96895
1.92551
1.88178
1.82393
1.74711
1.66965
1.60682
1.55679
1.51663
1.49033
1.48461
1.5207
1.57539
1.58628
1.57036
1.55402
1.53068
1.47505
1.35525
1.188
1.08421
1.06066
1.05322
1.04707
1.04428
1.0441
1.04427
1.04539
1.04979
1.05997
1.06793
1.06846
3.72089
3.59181
3.29222
2.91632
2.44352
2.06041
1.81744
1.54067
1.31706
1.24428
1.15533
0.98293
0.927985
0.925902
0.892886
0.845066
0.831532
0.833216
0.824645
0.810926
0.811424
0.822187
0.833979
0.840445
0.850528
0.868766
0.875899
0.916243
1.0585
1.31537
1.6978
2.05492
2.15523
2.1839
2.19878
2.17795
2.12156
2.05262
2.02261
1.99711
1.93771
1.85157
1.78466
1.72952
1.65082
1.58791
1.55339
1.51255
1.47195
1.44696
1.42846
1.40712
1.38915
1.39488
1.41866
1.4438
1.50449
1.56798
1.57378
1.55351
1.54255
1.53908
1.52219
1.49058
1.46989
1.46011
1.45169
1.43513
1.40772
1.3824
1.36276
1.34216
1.32367
1.3093
1.30743
1.33971
1.41508
1.49933
1.53897
1.54698
1.54098
1.52573
1.49824
1.42683
1.26784
1.10247
1.04922
1.04443
1.04431
1.04433
1.0446
1.04603
1.05116
1.06197
1.06896
1.06923
3.73434
3.69758
3.55172
3.28567
2.9022
2.48742
2.18577
1.90007
1.63532
1.49098
1.35932
1.15824
1.03848
1.01325
0.969882
0.884484
0.846077
0.847803
0.834339
0.810395
0.809589
0.816808
0.836185
0.843254
0.845669
0.868362
0.984054
1.31377
1.69342
2.06477
2.25419
2.27527
2.25054
2.22563
2.19682
2.14432
2.07177
1.96889
1.90763
1.86607
1.79045
1.70894
1.67194
1.63686
1.57159
1.51432
1.47704
1.43843
1.39928
1.36627
1.34033
1.31563
1.29196
1.2708
1.27209
1.27449
1.28487
1.31882
1.3279
1.31754
1.31096
1.31509
1.30925
1.29484
1.29205
1.29502
1.298
1.29406
1.28974
1.28819
1.29169
1.28493
1.26946
1.25514
1.24734
1.25528
1.28754
1.33878
1.39537
1.44453
1.48543
1.51033
1.51275
1.49676
1.448
1.31496
1.12653
1.05005
1.04442
1.04443
1.04491
1.04693
1.05336
1.06471
1.07017
1.07021
3.71999
3.71363
3.67243
3.51975
3.22941
2.87094
2.58019
2.26015
1.92744
1.75889
1.63859
1.43563
1.22318
1.17692
1.13375
1.04087
0.972381
0.954564
0.916169
0.853943
0.8387
0.842323
0.854383
0.884889
1.00185
1.23151
1.65656
2.11748
2.23849
2.33237
2.3121
2.27109
2.21294
2.15425
2.07578
1.99652
1.92145
1.83319
1.77245
1.71186
1.62736
1.58868
1.58052
1.55442
1.48966
1.44247
1.41811
1.39181
1.35105
1.31281
1.28698
1.26467
1.24393
1.22042
1.20749
1.2078
1.20648
1.22369
1.24335
1.24132
1.23669
1.23906
1.23514
1.22751
1.22544
1.22999
1.23113
1.22831
1.22775
1.23433
1.24758
1.25639
1.24686
1.2354
1.23023
1.23003
1.23689
1.2549
1.28174
1.31612
1.359
1.41093
1.45867
1.47767
1.47278
1.43362
1.33077
1.1592
1.05882
1.04633
1.04627
1.0483
1.05618
1.06777
1.07163
1.07153
3.69083
3.68697
3.6744
3.62295
3.46014
3.17301
2.89961
2.62271
2.28133
2.02574
1.87283
1.69922
1.50828
1.39868
1.30768
1.175
1.08394
1.05666
1.01382
0.926915
0.871432
0.885446
0.962613
1.24426
1.67283
2.04347
2.42091
2.45743
2.37919
2.30865
2.25826
2.17171
2.06864
1.95077
1.87244
1.83752
1.78629
1.71951
1.66173
1.5841
1.51818
1.50416
1.49155
1.4521
1.37985
1.3575
1.35088
1.33229
1.28345
1.24759
1.22939
1.20961
1.18835
1.17163
1.1528
1.1498
1.15185
1.15556
1.17818
1.18666
1.18613
1.18297
1.17537
1.17085
1.16866
1.17214
1.17507
1.1763
1.18165
1.19188
1.2045
1.21885
1.21936
1.2087
1.20112
1.19812
1.19966
1.20888
1.22464
1.24609
1.27382
1.30712
1.3454
1.38673
1.41609
1.4218
1.40234
1.33073
1.19097
1.07227
1.04936
1.05044
1.05861
1.07005
1.07324
1.07309
3.67798
3.65291
3.64099
3.62396
3.56486
3.40369
3.16751
2.90229
2.58227
2.3392
2.15075
1.92246
1.73349
1.62542
1.53407
1.37919
1.21489
1.17749
1.15424
1.11708
1.17367
1.36323
1.75019
2.32057
2.5236
2.65607
2.64415
2.55938
2.44135
2.27641
2.15178
2.06414
1.97594
1.86862
1.80082
1.74719
1.68169
1.61896
1.55093
1.46886
1.43438
1.4183
1.38988
1.33695
1.2663
1.25422
1.25867
1.24421
1.1931
1.17755
1.16828
1.14887
1.12718
1.11933
1.10356
1.08672
1.09223
1.09648
1.10259
1.12585
1.14017
1.13886
1.12787
1.12389
1.12312
1.12456
1.12794
1.13122
1.13632
1.14457
1.15625
1.17128
1.18239
1.18192
1.17843
1.17946
1.18418
1.19041
1.19849
1.21316
1.23388
1.253
1.26905
1.2875
1.31595
1.35101
1.36628
1.3613
1.32044
1.2178
1.09847
1.06308
1.06367
1.07055
1.07486
1.07482
3.72019
3.6493
3.63131
3.62059
3.60637
3.52601
3.35816
3.14699
2.85619
2.59888
2.41128
2.19125
1.98159
1.81842
1.70953
1.5742
1.4301
1.37258
1.43217
1.68725
2.16029
2.55714
2.92391
3.0658
3.00586
2.9014
2.74517
2.55852
2.38739
2.22334
2.11265
2.03907
1.9546
1.86276
1.78261
1.70507
1.62816
1.55871
1.48336
1.41628
1.38598
1.3587
1.31661
1.24724
1.16741
1.15286
1.15874
1.14332
1.09939
1.09822
1.09863
1.08002
1.06507
1.06071
1.04859
1.02873
1.02889
1.04291
1.04267
1.05282
1.0858
1.09295
1.08239
1.0761
1.07599
1.0751
1.07491
1.07703
1.08308
1.09528
1.11536
1.14067
1.15919
1.1634
1.16123
1.16006
1.1621
1.17022
1.18224
1.19698
1.21216
1.22118
1.22743
1.23435
1.2448
1.2638
1.29668
1.32088
1.32169
1.30067
1.23944
1.13332
1.07786
1.07427
1.07541
1.07499
3.71774
3.66813
3.64015
3.6241
3.6064
3.56105
3.46925
3.32775
3.09864
2.85794
2.65704
2.39706
2.2002
2.04656
1.92597
1.79879
1.84928
2.0649
2.51147
3.25941
3.54085
3.60846
3.54627
3.4505
3.30168
3.07447
2.83181
2.62596
2.4462
2.28084
2.17143
2.10107
2.01633
1.89973
1.78757
1.69974
1.61643
1.53473
1.44802
1.3924
1.36525
1.33346
1.28846
1.21014
1.13395
1.10905
1.09225
1.05922
1.01442
1.00882
1.00395
0.990791
0.982059
0.973033
0.967676
0.957071
0.954184
0.97628
0.98419
0.984307
1.00559
1.03677
1.03944
1.03542
1.03115
1.02857
1.02879
1.03133
1.03847
1.05359
1.07718
1.10615
1.13003
1.13873
1.14067
1.14406
1.14831
1.15616
1.17553
1.19081
1.19717
1.20055
1.1997
1.20147
1.2066
1.21308
1.22656
1.25822
1.29439
1.3033
1.29693
1.25654
1.16116
1.08739
1.07699
1.07541
3.76165
3.74394
3.68791
3.62102
3.57158
3.54998
3.51971
3.44766
3.29612
3.07287
2.87681
2.63282
2.40713
2.33685
2.43856
2.76586
3.36322
3.76868
4.1921
4.33648
4.21515
4.0131
3.75603
3.50269
3.27245
3.06583
2.89728
2.75622
2.59732
2.41052
2.24113
2.11949
2.0342
1.9429
1.84537
1.7628
1.66287
1.54411
1.44768
1.39951
1.36745
1.32649
1.2767
1.19766
1.13247
1.10292
1.07495
1.03338
0.997537
0.97866
0.955642
0.933373
0.907102
0.878862
0.87281
0.871842
0.866788
0.879826
0.906499
0.909407
0.917076
0.954952
0.995655
1.00025
0.99693
0.995339
0.99803
1.00378
1.01046
1.02083
1.03836
1.06714
1.10252
1.12144
1.12643
1.13469
1.14988
1.16487
1.17185
1.17698
1.18104
1.18054
1.17576
1.17803
1.18165
1.18489
1.19069
1.20677
1.2466
1.28149
1.28547
1.28485
1.2587
1.16717
1.09078
1.07663
3.58396
3.6957
3.6669
3.58292
3.54564
3.53466
3.53009
3.49732
3.4028
3.25438
3.10247
2.99187
3.12142
3.57395
4.25063
5.05079
5.32035
5.29923
5.19079
4.98215
4.64505
4.25606
3.91794
3.63005
3.37626
3.17449
3.01809
2.87621
2.7249
2.53389
2.33814
2.18496
2.06886
2.00204
1.95628
1.87502
1.75265
1.5751
1.4695
1.45309
1.42684
1.37345
1.29033
1.21281
1.17167
1.13655
1.09498
1.0493
1.01047
0.969251
0.93328
0.903499
0.870267
0.843148
0.830304
0.827863
0.820356
0.814719
0.827227
0.842599
0.851328
0.872163
0.923767
0.957171
0.962585
0.963512
0.966338
0.972301
0.980882
0.994269
1.01436
1.04766
1.09091
1.11366
1.12187
1.12938
1.14112
1.15161
1.15526
1.15826
1.16134
1.16275
1.16103
1.15914
1.15955
1.16144
1.16461
1.17399
1.20328
1.25818
1.28949
1.29342
1.28863
1.25239
1.16325
1.08571
2.53981
3.39191
3.63332
3.62785
3.61005
3.56661
3.52151
3.47463
3.45409
3.54233
3.91257
4.65693
5.48999
5.96659
6.24076
6.19979
5.97324
5.66325
5.36439
5.04975
4.72212
4.41322
4.12885
3.86401
3.61816
3.41221
3.22273
3.00183
2.75082
2.51626
2.35937
2.2545
2.15915
2.0634
1.94588
1.81695
1.68582
1.58626
1.52633
1.46689
1.39892
1.32632
1.25542
1.19569
1.15123
1.10958
1.05977
1.00742
0.962967
0.932605
0.905573
0.877093
0.850503
0.829033
0.813293
0.801457
0.786999
0.772365
0.770885
0.779911
0.795122
0.812835
0.84306
0.891087
0.917534
0.931314
0.944015
0.957186
0.971918
0.988729
1.01114
1.04398
1.09113
1.11754
1.12425
1.13224
1.14175
1.14552
1.14736
1.14884
1.15145
1.14906
1.13574
1.13126
1.1349
1.14185
1.15068
1.16585
1.19198
1.23499
1.26656
1.27188
1.27425
1.27245
1.23954
1.1401
1.38286
2.29798
3.09344
3.53919
3.54489
3.54804
3.59057
3.82245
4.43233
5.45198
6.53807
7.34806
7.68671
7.57248
7.35602
6.88263
6.30433
5.7999
5.44707
5.14951
4.87061
4.58405
4.27355
3.9724
3.71866
3.50235
3.29909
3.08193
2.84444
2.62241
2.45559
2.32477
2.20612
2.08569
1.95906
1.83267
1.71998
1.63653
1.56117
1.48366
1.40731
1.3327
1.26343
1.20381
1.1557
1.11015
1.05847
1.00296
0.95652
0.924481
0.896069
0.867411
0.841669
0.821902
0.806774
0.79098
0.77366
0.757877
0.749216
0.745243
0.746718
0.750495
0.761037
0.788335
0.831716
0.874699
0.912457
0.941713
0.967771
0.992755
1.01946
1.05662
1.1052
1.1322
1.14197
1.14799
1.15045
1.15055
1.15111
1.15103
1.13886
1.11188
1.09924
1.10176
1.10983
1.12365
1.14387
1.16626
1.19418
1.22825
1.25445
1.26097
1.26218
1.26268
1.25827
1.19793
1.02446
1.24163
1.98451
2.92579
3.2617
3.82858
4.7526
5.90199
7.04462
7.78863
8.06048
8.02267
7.91593
7.73012
7.44802
7.16073
6.77022
6.30478
5.86032
5.45065
5.07068
4.68784
4.38277
4.13464
3.88828
3.663
3.457
3.25744
3.05973
2.8705
2.69108
2.51617
2.35265
2.20915
2.08565
1.97419
1.86675
1.76091
1.66136
1.57064
1.48605
1.40762
1.33646
1.27446
1.22164
1.1706
1.11293
1.05001
0.995956
0.957074
0.925666
0.896221
0.868766
0.845895
0.826636
0.805716
0.782263
0.762204
0.743329
0.73066
0.728166
0.728062
0.73229
0.745675
0.772118
0.812749
0.863164
0.915251
0.958675
0.992573
1.0277
1.08116
1.14023
1.1605
1.1653
1.16732
1.16669
1.16352
1.15808
1.14233
1.10546
1.07612
1.07362
1.07733
1.08445
1.10223
1.13818
1.17926
1.21239
1.23372
1.24442
1.25338
1.25963
1.2605
1.26232
1.22881
1.0004
1.01222
1.17237
1.83167
3.37278
5.19997
6.86184
7.99806
8.77094
9.01346
8.85142
8.50267
8.02762
7.61848
7.32793
7.04702
6.75196
6.44766
6.07002
5.6442
5.21
4.78266
4.35783
3.98155
3.69369
3.4733
3.28305
3.10198
2.93158
2.7722
2.61051
2.43766
2.2659
2.11795
2.00074
1.90017
1.79792
1.69389
1.59663
1.50515
1.42116
1.34824
1.28239
1.22379
1.17398
1.12557
1.06904
1.00595
0.952865
0.91669
0.888868
0.86156
0.833739
0.811734
0.795096
0.775379
0.751729
0.72946
0.716611
0.714083
0.715458
0.719006
0.72296
0.731887
0.748006
0.776905
0.824173
0.88773
0.944632
0.985399
1.02964
1.09854
1.16355
1.18056
1.18462
1.18616
1.18523
1.18031
1.15926
1.11605
1.0733
1.0612
1.0622
1.06535
1.07087
1.08712
1.13798
1.20238
1.2299
1.23638
1.24014
1.24582
1.25606
1.27
1.2762
1.24276
1.0004
1.01222
1.17237
1.83167
3.37278
5.19997
6.86184
7.99806
8.77094
9.01346
8.85142
8.50267
8.02762
7.61848
7.32793
7.04702
6.75196
6.44766
6.07002
5.6442
5.21
4.78266
4.35783
3.98155
3.69369
3.4733
3.28305
3.10198
2.93158
2.7722
2.61051
2.43766
2.26589
2.11795
2.00074
1.90017
1.79792
1.69389
1.59663
1.50515
1.42116
1.34824
1.28239
1.22379
1.17398
1.12557
1.06904
1.00595
0.952865
0.91669
0.888868
0.86156
0.833739
0.811734
0.795096
0.775379
0.751729
0.729459
0.716611
0.714084
0.715458
0.719006
0.722959
0.731887
0.748005
0.776916
0.82411
0.88745
0.944611
0.985708
1.02979
1.09858
1.16355
1.18049
1.18459
1.18615
1.18515
1.1804
1.16189
1.11756
1.07326
1.06104
1.06273
1.06623
1.07178
1.08791
1.13455
1.20604
1.23291
1.23651
1.23953
1.24506
1.25867
1.27485
1.27816
1.24351
1.02446
1.24163
1.98451
2.92579
3.2617
3.82858
4.7526
5.90199
7.04462
7.78863
8.06048
8.02267
7.91593
7.73012
7.44802
7.16073
6.77022
6.30478
5.86032
5.45065
5.07068
4.68784
4.38277
4.13464
3.88828
3.663
3.457
3.25744
3.05973
2.8705
2.69108
2.51617
2.35265
2.20915
2.08565
1.97419
1.86675
1.76091
1.66136
1.57064
1.48605
1.40762
1.33646
1.27446
1.22164
1.1706
1.11293
1.05001
0.995956
0.957074
0.925666
0.896221
0.868766
0.845895
0.826636
0.805716
0.782263
0.762204
0.743329
0.730661
0.728166
0.728062
0.73229
0.745675
0.772119
0.812754
0.863164
0.91524
0.958685
0.992612
1.02773
1.08124
1.14019
1.16075
1.16561
1.16757
1.16686
1.16383
1.15796
1.14234
1.10559
1.07792
1.07663
1.08053
1.08725
1.10334
1.1376
1.17809
1.21102
1.23252
1.24364
1.25446
1.26116
1.26205
1.26455
1.23099
1.38286
2.29798
3.09344
3.53919
3.54489
3.54804
3.59057
3.82245
4.43233
5.45198
6.53807
7.34806
7.68671
7.57248
7.35602
6.88263
6.30433
5.7999
5.44707
5.14951
4.87061
4.58405
4.27355
3.9724
3.71866
3.50235
3.29909
3.08193
2.84444
2.62241
2.45559
2.32477
2.20612
2.08569
1.95906
1.83267
1.71998
1.63653
1.56117
1.48366
1.40731
1.3327
1.26343
1.20381
1.1557
1.11015
1.05847
1.00296
0.95652
0.924481
0.896069
0.867411
0.841669
0.821902
0.806775
0.79098
0.77366
0.757877
0.749217
0.745243
0.746718
0.750495
0.761037
0.788334
0.831718
0.874703
0.912456
0.941714
0.967775
0.992764
1.01949
1.05664
1.10516
1.13237
1.14222
1.14815
1.15049
1.15049
1.15102
1.15086
1.1388
1.11171
1.09867
1.10115
1.10897
1.12247
1.14253
1.1651
1.19334
1.22645
1.254
1.26223
1.26343
1.26401
1.25908
1.19734
2.53981
3.39191
3.63332
3.62785
3.61005
3.56661
3.52151
3.47463
3.45409
3.54233
3.91257
4.65693
5.48999
5.96659
6.24076
6.19979
5.97324
5.66325
5.36439
5.04975
4.72212
4.41322
4.12885
3.86401
3.61816
3.41221
3.22273
3.00183
2.75082
2.51626
2.35937
2.2545
2.15915
2.0634
1.94588
1.81695
1.68582
1.58626
1.52633
1.46689
1.39892
1.32632
1.25542
1.19569
1.15123
1.10958
1.05977
1.00742
0.962966
0.932605
0.905573
0.877093
0.850503
0.829033
0.813293
0.801457
0.786999
0.772365
0.770884
0.779911
0.795123
0.812834
0.84306
0.891086
0.917535
0.931317
0.944014
0.957185
0.971918
0.988732
1.01115
1.04399
1.09116
1.11752
1.1242
1.13224
1.14173
1.14539
1.14712
1.14858
1.15118
1.14872
1.13486
1.13013
1.13372
1.14054
1.14937
1.16504
1.19122
1.234
1.2679
1.27375
1.27663
1.2743
1.23966
1.13845
3.58396
3.6957
3.6669
3.58292
3.54564
3.53466
3.53009
3.49732
3.4028
3.25438
3.10247
2.99187
3.12142
3.57395
4.25063
5.05079
5.32035
5.29923
5.19079
4.98215
4.64505
4.25606
3.91794
3.63005
3.37626
3.17449
3.01809
2.87621
2.7249
2.53389
2.33814
2.18496
2.06886
2.00204
1.95628
1.87502
1.75265
1.5751
1.4695
1.45309
1.42684
1.37345
1.29033
1.21281
1.17167
1.13655
1.09498
1.0493
1.01047
0.969251
0.93328
0.903499
0.870267
0.843148
0.830304
0.827863
0.820356
0.814719
0.827226
0.8426
0.851328
0.872163
0.923768
0.957168
0.962585
0.963514
0.966339
0.9723
0.98088
0.994269
1.01436
1.04767
1.09092
1.11366
1.12184
1.12937
1.14115
1.15161
1.15518
1.15807
1.16109
1.16229
1.15965
1.15759
1.15865
1.16075
1.16407
1.17352
1.2026
1.25819
1.29064
1.29446
1.2889
1.25168
1.16142
1.08494
3.76165
3.74394
3.68791
3.62102
3.57158
3.54998
3.51971
3.44766
3.29612
3.07287
2.87681
2.63282
2.40713
2.33685
2.43856
2.76586
3.36322
3.76868
4.1921
4.33648
4.21515
4.0131
3.75603
3.50269
3.27245
3.06583
2.89728
2.75622
2.59732
2.41052
2.24113
2.11949
2.0342
1.9429
1.84537
1.7628
1.66287
1.54411
1.44768
1.39951
1.36745
1.32649
1.2767
1.19766
1.13247
1.10292
1.07495
1.03338
0.997537
0.97866
0.955642
0.933373
0.907102
0.878862
0.87281
0.871842
0.866788
0.879826
0.906499
0.909407
0.917075
0.954953
0.995656
1.00025
0.996929
0.99534
0.998031
1.00378
1.01046
1.02083
1.03836
1.06714
1.10253
1.12144
1.12642
1.13468
1.14993
1.16494
1.17185
1.17693
1.1809
1.1803
1.17531
1.17753
1.18127
1.18461
1.19049
1.20664
1.24665
1.28212
1.28642
1.2856
1.25854
1.16564
1.09009
1.07659
3.71774
3.66813
3.64015
3.6241
3.6064
3.56105
3.46925
3.32775
3.09864
2.85794
2.65704
2.39706
2.2002
2.04656
1.92597
1.79879
1.84928
2.0649
2.51147
3.25941
3.54085
3.60846
3.54627
3.4505
3.30168
3.07447
2.83181
2.62596
2.4462
2.28084
2.17143
2.10107
2.01633
1.89973
1.78757
1.69974
1.61643
1.53473
1.44802
1.3924
1.36525
1.33346
1.28846
1.21014
1.13395
1.10905
1.09225
1.05922
1.01442
1.00882
1.00395
0.990791
0.982059
0.973033
0.967676
0.957071
0.954184
0.97628
0.984191
0.984307
1.00559
1.03677
1.03944
1.03542
1.03115
1.02857
1.0288
1.03133
1.03847
1.05359
1.07718
1.10614
1.13003
1.13874
1.14066
1.14405
1.14833
1.1562
1.1756
1.19082
1.19711
1.20043
1.19963
1.20157
1.20674
1.21324
1.22674
1.25851
1.29487
1.30375
1.2971
1.25622
1.1601
1.08698
1.07696
1.07543
3.72019
3.6493
3.63131
3.62059
3.60637
3.52601
3.35816
3.14699
2.85619
2.59888
2.41128
2.19125
1.98159
1.81842
1.70953
1.5742
1.4301
1.37258
1.43217
1.68725
2.16029
2.55714
2.92391
3.0658
3.00586
2.9014
2.74517
2.55852
2.38739
2.22334
2.11265
2.03907
1.9546
1.86276
1.78261
1.70507
1.62816
1.55871
1.48336
1.41628
1.38598
1.3587
1.31661
1.24724
1.16741
1.15286
1.15874
1.14332
1.09939
1.09822
1.09863
1.08002
1.06507
1.06071
1.04859
1.02874
1.02889
1.04291
1.04267
1.05282
1.0858
1.09295
1.08239
1.0761
1.07599
1.0751
1.07491
1.07703
1.08308
1.09528
1.11537
1.14067
1.15919
1.1634
1.16122
1.16006
1.16211
1.17023
1.18228
1.19699
1.21215
1.22124
1.22755
1.23449
1.24495
1.26397
1.29691
1.3211
1.32187
1.30079
1.2391
1.13258
1.07769
1.07426
1.07541
1.07501
3.67798
3.65291
3.64099
3.62396
3.56486
3.40369
3.16751
2.90229
2.58227
2.3392
2.15075
1.92246
1.73349
1.62542
1.53407
1.37919
1.21489
1.17749
1.15424
1.11708
1.17367
1.36323
1.75019
2.32057
2.5236
2.65607
2.64415
2.55938
2.44135
2.27641
2.15178
2.06414
1.97594
1.86862
1.80082
1.74719
1.68169
1.61896
1.55093
1.46886
1.43438
1.4183
1.38988
1.33695
1.2663
1.25422
1.25867
1.24421
1.1931
1.17755
1.16828
1.14887
1.12718
1.11933
1.10356
1.08672
1.09223
1.09648
1.10259
1.12585
1.14017
1.13886
1.12787
1.12389
1.12312
1.12456
1.12794
1.13122
1.13632
1.14457
1.15626
1.17127
1.18239
1.18192
1.17843
1.17946
1.18417
1.19041
1.19849
1.21315
1.23388
1.25305
1.26914
1.2876
1.31603
1.35108
1.36634
1.36134
1.32041
1.21746
1.09808
1.06298
1.06364
1.07055
1.07486
1.07482
3.69083
3.68697
3.6744
3.62295
3.46014
3.17301
2.89961
2.62271
2.28133
2.02574
1.87283
1.69922
1.50828
1.39868
1.30768
1.175
1.08394
1.05666
1.01382
0.926915
0.871432
0.885446
0.962613
1.24426
1.67283
2.04347
2.42091
2.45743
2.37919
2.30865
2.25826
2.17171
2.06864
1.95077
1.87244
1.83752
1.78629
1.71951
1.66173
1.5841
1.51818
1.50416
1.49155
1.4521
1.37985
1.3575
1.35088
1.33229
1.28345
1.24759
1.22939
1.20961
1.18835
1.17163
1.1528
1.1498
1.15185
1.15556
1.17818
1.18666
1.18613
1.18297
1.17537
1.17085
1.16866
1.17214
1.17507
1.1763
1.18165
1.19188
1.2045
1.21885
1.21936
1.2087
1.20112
1.19812
1.19966
1.20888
1.22463
1.24608
1.27382
1.30713
1.34542
1.38674
1.41608
1.42178
1.4023
1.33063
1.19072
1.07211
1.04933
1.05043
1.05861
1.07006
1.07324
1.07309
3.71999
3.71363
3.67243
3.51975
3.22941
2.87094
2.58019
2.26015
1.92744
1.75889
1.63859
1.43563
1.22318
1.17692
1.13375
1.04087
0.972381
0.954564
0.916169
0.853943
0.8387
0.842323
0.854383
0.884889
1.00185
1.23151
1.65656
2.11748
2.23849
2.33237
2.3121
2.27109
2.21294
2.15425
2.07578
1.99652
1.92145
1.83319
1.77245
1.71186
1.62736
1.58868
1.58052
1.55442
1.48966
1.44247
1.41811
1.39181
1.35105
1.31281
1.28698
1.26467
1.24393
1.22042
1.20749
1.2078
1.20648
1.22369
1.24335
1.24132
1.23669
1.23906
1.23514
1.22751
1.22544
1.22999
1.23113
1.22831
1.22775
1.23433
1.24758
1.25639
1.24686
1.2354
1.23023
1.23003
1.23689
1.2549
1.28174
1.31612
1.35899
1.41092
1.45866
1.47765
1.47276
1.43358
1.33068
1.15906
1.05876
1.04633
1.04626
1.0483
1.05618
1.06777
1.07163
1.07153
3.73434
3.69758
3.55172
3.28567
2.9022
2.48742
2.18577
1.90007
1.63532
1.49098
1.35932
1.15824
1.03848
1.01325
0.969882
0.884484
0.846077
0.847803
0.834339
0.810395
0.809589
0.816808
0.836185
0.843254
0.845669
0.868362
0.984054
1.31377
1.69342
2.06477
2.25419
2.27527
2.25054
2.22563
2.19682
2.14432
2.07177
1.96889
1.90763
1.86607
1.79045
1.70894
1.67194
1.63686
1.57159
1.51432
1.47704
1.43843
1.39928
1.36627
1.34033
1.31563
1.29196
1.2708
1.27209
1.27449
1.28487
1.31882
1.3279
1.31754
1.31096
1.31509
1.30925
1.29484
1.29205
1.29502
1.298
1.29406
1.28974
1.28819
1.29169
1.28493
1.26946
1.25514
1.24734
1.25528
1.28754
1.33878
1.39537
1.44453
1.48542
1.51033
1.51274
1.49674
1.44798
1.3149
1.12647
1.05004
1.04443
1.04443
1.04491
1.04693
1.05336
1.06471
1.07017
1.07021
3.72089
3.59181
3.29222
2.91632
2.44352
2.06041
1.81744
1.54067
1.31706
1.24428
1.15533
0.98293
0.927985
0.925902
0.892886
0.845066
0.831532
0.833216
0.824645
0.810926
0.811424
0.822187
0.833979
0.840445
0.850528
0.868766
0.875899
0.916243
1.0585
1.31537
1.6978
2.05492
2.15523
2.1839
2.19878
2.17795
2.12156
2.05262
2.02261
1.99711
1.93771
1.85157
1.78466
1.72952
1.65082
1.58791
1.55339
1.51255
1.47195
1.44696
1.42846
1.40712
1.38915
1.39488
1.41866
1.4438
1.50449
1.56798
1.57378
1.55351
1.54255
1.53908
1.52219
1.49058
1.46989
1.46011
1.45169
1.43513
1.40772
1.3824
1.36276
1.34216
1.32367
1.3093
1.30743
1.33971
1.41508
1.49933
1.53897
1.54698
1.54097
1.52573
1.49824
1.42682
1.26782
1.10245
1.04922
1.04443
1.04431
1.04433
1.0446
1.04603
1.05116
1.06197
1.06896
1.06923
3.64992
3.31355
2.85882
2.3852
1.90915
1.62642
1.4157
1.18053
1.05314
0.998585
0.919138
0.837345
0.835095
0.849107
0.836146
0.821498
0.823193
0.839238
0.856893
0.859152
0.861029
0.87082
0.873784
0.870241
0.868652
0.873384
0.884183
0.88729
0.892833
0.923803
1.04529
1.30129
1.62312
1.82849
2.02005
2.09151
2.07298
2.04474
2.03273
2.01686
1.97907
1.92214
1.87928
1.84973
1.81132
1.77269
1.77381
1.76954
1.75559
1.77266
1.80747
1.81762
1.84357
1.92412
2.00237
2.06758
2.17041
2.22604
2.20936
2.16497
2.14001
2.11515
2.0734
2.01947
1.96895
1.92551
1.88178
1.82393
1.74711
1.66965
1.60682
1.55679
1.51663
1.49033
1.48461
1.5207
1.57539
1.58628
1.57036
1.55402
1.53068
1.47505
1.35524
1.18799
1.08421
1.06066
1.05322
1.04707
1.04428
1.0441
1.04427
1.04539
1.04979
1.05997
1.06793
1.06846
3.35892
2.75055
2.22774
1.69429
1.386
1.27537
1.12968
0.980323
0.941886
0.915108
0.859472
0.822458
0.833574
0.852611
0.850577
0.845602
0.851535
0.870198
0.885179
0.892287
0.893981
0.893555
0.889774
0.883304
0.881228
0.881698
0.890081
0.888669
0.881258
0.869118
0.865965
0.892178
0.981328
1.16154
1.39823
1.64281
1.84732
1.90726
1.9537
2.0125
2.09513
2.15122
2.19393
2.24293
2.32803
2.40381
2.45629
2.48445
2.50058
2.53202
2.52651
2.5189
2.56841
2.61188
2.62987
2.65804
2.67859
2.67414
2.64172
2.59092
2.56377
2.53585
2.49363
2.44205
2.38699
2.33106
2.27388