/*--------------------------------*- C++ -*----------------------------------*\
  =========                 |
  \\      /  F ield         | OpenFOAM: The Open Source CFD Toolbox
   \\    /   O peration     | Website:  https://openfoam.org
    \\  /    A nd           | Version:  7
     \\/     M anipulation  |
\*---------------------------------------------------------------------------*/
FoamFile
{
    version     2.0;
    format      ascii;
    class       volScalarField;
    location    "0.5";
    object      rho;
}
// * * * * * * * * * * * * * * * * * * * * * * * * * * * * * * * * * * * * * //

dimensions      [1 -3 0 0 0 0 0];

internalField   nonuniform List<scalar> 
4608
(
1.40001
1.40001
1.40001
1.40001
1.40001
1.40001
1.40001
1.40001
1.40001
1.40001
1.40001
1.40001
1.40001
1.40001
1.40001
1.40001
1.40001
1.40001
1.40001
1.40001
1.40001
1.40001
1.40001
1.40001
1.40001
1.40001
1.40001
1.40001
1.40001
1.40001
1.40001
1.40001
1.40001
1.40001
1.40001
1.40001
1.40001
1.40001
1.40001
1.40001
1.40001
1.40001
1.40001
1.40001
1.40001
1.40001
1.40001
1.40001
1.40001
1.40001
1.40001
1.40001
1.40001
1.40001
1.40001
1.40001
1.40001
1.40001
1.40001
1.40001
1.40001
1.40001
1.40001
1.40001
1.40001
1.40001
1.40001
1.40001
1.40001
1.40001
1.40001
1.40001
1.40001
1.40001
1.40001
1.40001
1.40001
1.40001
1.40001
1.40001
1.40001
1.40001
1.40001
1.40001
1.40001
1.40001
1.40001
1.40001
1.40001
1.40001
1.40001
1.40001
1.40001
1.40001
1.40001
1.40001
1.40001
1.40001
1.40001
1.40001
1.40001
1.40001
1.40001
1.40001
1.40001
1.40001
1.40001
1.40001
1.40001
1.40001
1.40001
1.40001
1.40001
1.40001
1.40001
1.40001
1.40001
1.40001
1.40001
1.40001
1.40001
1.40001
1.40001
1.40001
1.40001
1.40001
1.40001
1.40001
1.40001
1.40001
1.40001
1.40001
1.40001
1.40001
1.40001
1.40001
1.40001
1.40001
1.40001
1.40001
1.40001
1.40001
1.40001
1.40001
1.40001
1.40001
1.40001
1.40001
1.40001
1.40001
1.40001
1.40001
1.40001
1.40001
1.40001
1.40001
1.40001
1.40001
1.40001
1.40001
1.40001
1.40001
1.40001
1.40001
1.40001
1.40001
1.40001
1.40001
1.40001
1.40001
1.40001
1.40001
1.40001
1.40001
1.40001
1.40001
1.40001
1.40001
1.40001
1.40001
1.40001
1.40001
1.40001
1.40001
1.40001
1.40001
1.40001
1.40001
1.40001
1.40001
1.40001
1.40001
1.40001
1.40001
1.40001
1.40001
1.40001
1.40001
1.40001
1.40001
1.40001
1.40001
1.40001
1.40001
1.40001
1.40001
1.40001
1.40001
1.40001
1.40001
1.40001
1.40001
1.40001
1.40001
1.40001
1.40001
1.40001
1.40001
1.40001
1.40001
1.40001
1.40001
1.40001
1.40001
1.40001
1.40001
1.40001
1.40001
1.40001
1.40001
1.40001
1.40001
1.40001
1.40001
1.40001
1.40001
1.40001
1.40001
1.40001
1.40001
1.40001
1.40001
1.40001
1.40001
1.40001
1.40001
1.40001
1.40001
1.40001
1.40001
1.40001
1.40001
1.40001
1.40001
1.40001
1.40001
1.40001
1.40001
1.40001
1.40001
1.40001
1.40001
1.40001
1.40001
1.40001
1.40001
1.40001
1.40001
1.40001
1.40001
1.40001
1.40001
1.40001
1.40001
1.40001
1.40001
1.40001
1.40001
1.40001
1.40001
1.40001
1.40001
1.40001
1.40001
1.40001
1.40001
1.40001
1.40001
1.40001
1.40001
1.40001
1.40001
1.40001
1.40001
1.40001
1.40001
1.40001
1.40001
1.40001
1.40001
1.40001
1.40001
1.40001
1.40001
1.40001
1.40001
1.40001
1.40001
1.40001
1.40001
1.40001
1.40001
1.40001
1.40001
1.40001
1.40001
1.40001
1.40001
1.40001
1.40001
1.40001
1.40001
1.40001
1.40001
1.40001
1.40001
1.40001
1.40001
1.40001
1.40001
1.40001
1.40001
1.40001
1.40001
1.40001
1.40001
1.40001
1.40001
1.40001
1.40001
1.40001
1.40001
1.40001
1.40001
1.40001
1.40001
1.40001
1.40001
1.40001
1.40001
1.40001
1.40001
1.40001
1.40001
1.40001
1.40001
1.40001
1.40001
1.40001
1.40001
1.40001
1.40001
1.40001
1.40001
1.40001
1.40001
1.40001
1.40001
1.40001
1.40001
1.40001
1.40001
1.40001
1.40001
1.40001
1.40001
1.40001
1.40001
1.40001
1.40001
1.40001
1.40001
1.40001
1.40001
1.40001
1.40001
1.40001
1.40001
1.40001
1.40001
1.40001
1.40001
1.40001
1.40001
1.40001
1.40001
1.40001
1.40001
1.40001
1.40001
1.40001
1.40001
1.40001
1.40001
1.40001
1.40001
1.40001
1.40001
1.40001
1.40001
1.40001
1.40001
1.40001
1.40001
1.40001
1.40001
1.40001
1.40001
1.40001
1.40001
1.40001
1.40001
1.40001
1.40001
1.40001
1.40001
1.40001
1.40001
1.40001
1.40001
1.40001
1.40001
1.40001
1.40001
1.40001
1.40001
1.40001
1.40001
1.40001
1.40001
1.40001
1.40001
1.40001
1.40001
1.40001
1.40001
1.40001
1.40001
1.40001
1.40001
1.40001
1.40001
1.40001
1.40001
1.40001
1.40001
1.40001
1.40001
1.40001
1.40001
1.40001
1.40001
1.40001
1.40001
1.40001
1.40001
1.40001
1.40001
1.40001
1.40001
1.40001
1.40001
1.40001
1.40001
1.40001
1.40001
1.40001
1.40001
1.40001
1.40001
1.40001
1.40001
1.40001
1.40001
1.40001
1.40001
1.40001
1.40001
1.40001
1.40001
1.40001
1.40001
1.40001
1.40001
1.40001
1.40001
1.40001
1.40001
1.40001
1.40001
1.40001
1.40001
1.40001
1.40001
1.40001
1.40001
1.40001
1.40001
1.40001
1.40001
1.40001
1.40001
1.40001
1.40001
1.40001
1.40001
1.40001
1.40001
1.40001
1.40001
1.40001
1.40001
1.40001
1.40001
1.40001
1.40001
1.40001
1.40001
1.40001
1.40001
1.40001
1.40001
1.40001
1.40001
1.40001
1.40001
1.40001
1.40001
1.40001
1.40001
1.40001
1.40001
1.40001
1.40001
1.40001
1.40001
1.40001
1.40001
1.40001
1.40001
1.40001
1.40001
1.40001
1.40001
1.40001
1.40001
1.40001
1.40001
1.40001
1.40001
1.40001
1.40001
1.40001
1.40001
1.40001
1.40001
1.40001
1.40001
1.40001
1.40001
1.40001
1.40001
1.40001
1.40001
1.40001
1.40001
1.40001
1.40001
1.40001
1.40001
1.40001
1.40001
1.40001
1.40001
1.40001
1.40001
1.40001
1.40001
1.40001
1.40001
1.40001
1.40001
1.40001
1.40001
1.40001
1.40001
1.40001
1.40001
1.40001
1.40001
1.40001
1.40001
1.40001
1.40001
1.40001
1.40001
1.40001
1.40001
1.40001
1.40001
1.40001
1.40001
1.40001
1.40001
1.40001
1.40001
1.40001
1.40001
1.40001
1.40001
1.40001
1.40001
1.40001
1.40001
1.40001
1.40001
1.40001
1.40001
1.40001
1.40001
1.40001
1.40001
1.40001
1.40001
1.40001
1.40001
1.40001
1.40001
1.40001
1.40001
1.40001
1.40001
1.40001
1.40001
1.40001
1.40001
1.40001
1.40001
1.40001
1.40001
1.40001
1.40001
1.40001
1.40001
1.40001
1.40001
1.40001
1.40001
1.40001
1.40001
1.40001
1.40001
1.40001
1.40001
1.40001
1.40001
1.40001
1.40001
1.40001
1.40001
1.40001
1.40001
1.40001
1.40001
1.40001
1.40001
1.40001
1.40001
1.40001
1.40001
1.40001
1.40001
1.40001
1.40001
1.40001
1.40001
1.40001
1.40001
1.40001
1.40001
1.40001
1.40001
1.40001
1.40001
1.40001
1.40001
1.40001
1.40001
1.40001
1.40001
1.40001
1.40001
1.40001
1.40001
1.40001
1.40001
1.40001
1.40001
1.40001
1.40001
1.40001
1.40001
1.40001
1.40001
1.40001
1.40001
1.40001
1.40001
1.40001
1.40001
1.40001
1.40001
1.40001
1.40001
1.40001
1.40001
1.40001
1.40001
1.40001
1.40001
1.40001
1.40001
1.40001
1.40001
1.40001
1.40001
1.40001
1.40001
1.40001
1.40001
1.40001
1.40001
1.40001
1.40001
1.40001
1.40001
1.40001
1.40001
1.40001
1.40001
1.40001
1.40001
1.40001
1.40001
1.40001
1.40001
1.40001
1.40001
1.40001
1.40001
1.40001
1.40001
1.40001
1.40001
1.40001
1.40001
1.40001
1.40001
1.67805
2.0904
2.51956
3.00746
3.44001
3.79855
4.14719
4.41678
4.42565
4.30022
4.03645
3.71293
3.45827
3.36555
3.30061
3.30895
3.34258
3.3777
3.39888
3.40318
3.40584
3.41507
3.42632
3.42729
1.40185
1.41885
1.48022
1.58252
1.80399
2.10522
2.51786
2.9677
3.37523
3.54642
3.65098
3.61481
3.55305
3.48216
3.40973
3.39931
3.3861
3.36986
3.37716
3.38607
3.39221
3.40532
3.42024
3.4209
1.4
1.39996
1.40022
1.40011
1.40326
1.42164
1.49571
1.71303
2.18346
2.9019
3.42227
3.72284
3.7597
3.71425
3.61031
3.4632
3.34714
3.32392
3.33636
3.35463
3.36466
3.37786
3.39439
3.39883
1.40001
1.4
1.4
1.4
1.39999
1.40004
1.39991
1.40184
1.42731
1.64808
2.16328
2.9985
3.40376
3.55247
3.54485
3.5087
3.40656
3.33545
3.33393
3.32377
3.32775
3.34068
3.35769
3.36564
1.40001
1.40001
1.40001
1.4
1.4
1.4
1.39999
1.4
1.39992
1.40145
1.43602
1.6804
2.32781
2.97784
3.46408
3.54952
3.50827
3.43476
3.36816
3.32067
3.30976
3.31565
3.3262
3.33314
1.40001
1.40001
1.40001
1.40001
1.40001
1.4
1.4
1.4
1.4
1.4
1.39994
1.40235
1.47539
1.78301
2.51185
3.12285
3.45672
3.45078
3.41578
3.37037
3.34357
3.32849
3.30118
3.29417
1.40001
1.40001
1.40001
1.40001
1.40001
1.40001
1.40001
1.40001
1.40001
1.4
1.4
1.39999
1.4001
1.40749
1.54138
2.01895
2.84988
3.19938
3.33266
3.37972
3.37746
3.33506
3.29929
3.2731
1.40001
1.40001
1.40001
1.40001
1.40001
1.40001
1.40001
1.40001
1.40001
1.40001
1.40001
1.4
1.4
1.39998
1.40118
1.43322
1.69726
2.3572
3.03961
3.35994
3.35566
3.34907
3.32693
3.30081
1.40001
1.40001
1.40001
1.40001
1.40001
1.40001
1.40001
1.40001
1.40001
1.40001
1.40001
1.40001
1.4
1.4
1.4
1.40002
1.40641
1.52709
1.97804
2.74789
3.16666
3.37784
3.38418
3.35509
1.40001
1.40001
1.40001
1.40001
1.40001
1.40001
1.40001
1.40001
1.40001
1.40001
1.40001
1.40001
1.40001
1.4
1.4
1.4
1.39999
1.4016
1.4351
1.73893
2.41874
3.11321
3.32448
3.3221
1.40001
1.40001
1.40001
1.40001
1.40001
1.40001
1.40001
1.40001
1.40001
1.40001
1.40001
1.40001
1.40001
1.40001
1.40001
1.4
1.4
1.4
1.40015
1.41306
1.59199
2.19653
2.89477
3.27451
1.40001
1.40001
1.40001
1.40001
1.40001
1.40001
1.40001
1.40001
1.40001
1.40001
1.40001
1.40001
1.40001
1.40001
1.40001
1.40001
1.4
1.4
1.4
1.40002
1.40605
1.49391
2.00966
2.75239
1.40001
1.40001
1.40001
1.40001
1.40001
1.40001
1.40001
1.40001
1.40001
1.40001
1.40001
1.40001
1.40001
1.40001
1.40001
1.40001
1.40001
1.4
1.4
1.4
1.40001
1.4018
1.4653
1.84771
1.40001
1.40001
1.40001
1.40001
1.40001
1.40001
1.40001
1.40001
1.40001
1.40001
1.40001
1.40001
1.40001
1.40001
1.40001
1.40001
1.40001
1.40001
1.40001
1.4
1.4
1.4
1.40119
1.43186
1.40001
1.40001
1.40001
1.40001
1.40001
1.40001
1.40001
1.40001
1.40001
1.40001
1.40001
1.40001
1.40001
1.40001
1.40001
1.40001
1.40001
1.40001
1.40001
1.40001
1.4
1.4
1.40001
1.40008
1.40001
1.40001
1.40001
1.40001
1.40001
1.40001
1.40001
1.40001
1.40001
1.40001
1.40001
1.40001
1.40001
1.40001
1.40001
1.40001
1.40001
1.40001
1.40001
1.40001
1.40001
1.4
1.4
1.4
1.40001
1.40001
1.40001
1.40001
1.40001
1.40001
1.40001
1.40001
1.40001
1.40001
1.40001
1.40001
1.40001
1.40001
1.40001
1.40001
1.40001
1.40001
1.40001
1.40001
1.40001
1.4
1.4
1.4
1.40001
1.40001
1.40001
1.40001
1.40001
1.40001
1.40001
1.40001
1.40001
1.40001
1.40001
1.40001
1.40001
1.40001
1.40001
1.40001
1.40001
1.40001
1.40001
1.40001
1.4
1.4
1.40001
1.40008
1.40001
1.40001
1.40001
1.40001
1.40001
1.40001
1.40001
1.40001
1.40001
1.40001
1.40001
1.40001
1.40001
1.40001
1.40001
1.40001
1.40001
1.40001
1.40001
1.4
1.4
1.4
1.40119
1.43186
1.40001
1.40001
1.40001
1.40001
1.40001
1.40001
1.40001
1.40001
1.40001
1.40001
1.40001
1.40001
1.40001
1.40001
1.40001
1.40001
1.40001
1.4
1.4
1.4
1.40001
1.4018
1.4653
1.84771
1.40001
1.40001
1.40001
1.40001
1.40001
1.40001
1.40001
1.40001
1.40001
1.40001
1.40001
1.40001
1.40001
1.40001
1.40001
1.40001
1.4
1.4
1.4
1.40002
1.40605
1.49391
2.00966
2.75239
1.40001
1.40001
1.40001
1.40001
1.40001
1.40001
1.40001
1.40001
1.40001
1.40001
1.40001
1.40001
1.40001
1.40001
1.40001
1.4
1.4
1.4
1.40015
1.41306
1.59199
2.19653
2.89477
3.27451
1.40001
1.40001
1.40001
1.40001
1.40001
1.40001
1.40001
1.40001
1.40001
1.40001
1.40001
1.40001
1.40001
1.4
1.4
1.4
1.39999
1.4016
1.4351
1.73893
2.41874
3.11321
3.32448
3.3221
1.40001
1.40001
1.40001
1.40001
1.40001
1.40001
1.40001
1.40001
1.40001
1.40001
1.40001
1.40001
1.4
1.4
1.4
1.40002
1.40641
1.52709
1.97804
2.74789
3.16666
3.37784
3.38418
3.35509
1.40001
1.40001
1.40001
1.40001
1.40001
1.40001
1.40001
1.40001
1.40001
1.40001
1.40001
1.4
1.4
1.39998
1.40118
1.43322
1.69726
2.3572
3.03961
3.35994
3.35566
3.34907
3.32693
3.30081
1.40001
1.40001
1.40001
1.40001
1.40001
1.40001
1.40001
1.40001
1.40001
1.4
1.4
1.39999
1.4001
1.40749
1.54138
2.01895
2.84988
3.19938
3.33266
3.37972
3.37746
3.33506
3.29929
3.2731
1.40001
1.40001
1.40001
1.40001
1.40001
1.4
1.4
1.4
1.4
1.4
1.39994
1.40235
1.47539
1.78301
2.51185
3.12285
3.45672
3.45078
3.41578
3.37037
3.34357
3.32849
3.30118
3.29417
1.40001
1.40001
1.40001
1.4
1.4
1.4
1.39999
1.4
1.39992
1.40145
1.43602
1.6804
2.32781
2.97784
3.46408
3.54952
3.50827
3.43476
3.36816
3.32067
3.30976
3.31565
3.3262
3.33314
1.40001
1.4
1.4
1.4
1.39999
1.40004
1.39991
1.40184
1.42731
1.64808
2.16328
2.9985
3.40376
3.55247
3.54485
3.5087
3.40656
3.33545
3.33393
3.32377
3.32775
3.34068
3.35769
3.36564
1.4
1.39996
1.40022
1.40011
1.40326
1.42164
1.49571
1.71303
2.18346
2.9019
3.42227
3.72284
3.7597
3.71425
3.61031
3.4632
3.34714
3.32392
3.33636
3.35463
3.36466
3.37786
3.39439
3.39883
1.40185
1.41885
1.48022
1.58252
1.80399
2.10522
2.51786
2.9677
3.37523
3.54642
3.65098
3.61481
3.55305
3.48216
3.40973
3.39931
3.3861
3.36986
3.37716
3.38607
3.39221
3.40532
3.42024
3.4209
1.67805
2.0904
2.51956
3.00746
3.44001
3.79855
4.14719
4.41678
4.42565
4.30022
4.03645
3.71293
3.45827
3.36555
3.30061
3.30895
3.34258
3.3777
3.39888
3.40318
3.40584
3.41507
3.42632
3.42729
2.66081
1.95366
1.40732
1.05635
1.01102
0.984087
0.936649
0.940069
0.988073
1.05245
1.09301
1.12291
1.17138
1.21183
1.20947
1.19133
1.1879
1.19739
1.20945
1.21755
1.21704
1.21131
1.19823
1.18245
1.17842
1.1779
1.18175
1.1812
1.17381
1.16121
1.14903
1.14013
1.13572
1.14784
1.19489
1.31763
1.51463
1.75821
1.98902
2.25043
2.47668
2.653
2.79504
2.92896
3.03242
3.11541
3.18231
3.19666
3.19389
3.17125
3.1361
3.13142
3.1394
3.12764
3.11182
3.08859
3.04425
3.00101
2.96384
2.93453
2.91535
2.89682
2.87733
2.85335
2.81757
2.77126
2.7224
2.67441
2.62373
2.56937
2.52189
2.49066
2.46547
2.43682
2.39826
2.33906
2.24411
2.09393
1.87417
1.66343
1.5325
1.48308
1.47406
1.4721
1.47033
1.46717
1.45917
1.44826
1.44383
1.44357
1.4437
1.4447
1.44855
1.45761
1.46595
1.46676
3.14765
2.72516
2.34175
1.93443
1.67994
1.57214
1.43519
1.30028
1.25858
1.22789
1.16705
1.12651
1.13747
1.15608
1.15384
1.14789
1.1533
1.17124
1.18624
1.19316
1.19409
1.19285
1.18809
1.18154
1.18012
1.18072
1.18877
1.1875
1.17986
1.16704
1.16211
1.18503
1.26091
1.41027
1.60261
1.79566
1.94958
2.00036
2.04059
2.09213
2.1596
2.2014
2.22983
2.26262
2.32152
2.37771
2.41944
2.44253
2.45419
2.47464
2.46924
2.4634
2.49752
2.53317
2.55072
2.57283
2.58848
2.586
2.56534
2.53362
2.51917
2.50431
2.48005
2.44875
2.41247
2.37206
2.32851
2.28005
2.2264
2.17165
2.1239
2.09054
2.06932
2.05648
2.04898
2.03329
1.99857
1.94944
1.92252
1.88895
1.79268
1.63748
1.51492
1.47476
1.46773
1.46341
1.45677
1.44782
1.44378
1.44351
1.44366
1.44483
1.44913
1.45849
1.46647
1.46719
3.33358
3.1128
2.8015
2.46434
2.10333
1.87291
1.69755
1.49479
1.37644
1.3228
1.24409
1.16158
1.15926
1.17321
1.16034
1.14363
1.14469
1.16018
1.17758
1.17946
1.18101
1.19024
1.19171
1.18795
1.18598
1.19012
1.20009
1.2016
1.20563
1.23172
1.33401
1.53954
1.78582
1.94363
2.08991
2.14718
2.13515
2.11683
2.11207
2.10614
2.08419
2.04539
2.01266
1.98874
1.95778
1.92704
1.92735
1.92369
1.90919
1.92029
1.94355
1.94766
1.9644
2.02479
2.08682
2.13797
2.21579
2.26179
2.25135
2.22408
2.21153
2.19705
2.16888
2.12987
2.09121
2.05668
2.02161
1.97617
1.91804
1.86226
1.81971
1.78926
1.76945
1.76334
1.77549
1.83044
1.90415
1.93361
1.93701
1.93251
1.91319
1.85836
1.74202
1.58226
1.48308
1.45967
1.45201
1.44599
1.44337
1.44322
1.44341
1.44467
1.44932
1.45955
1.46732
1.46783
3.35614
3.27967
3.0871
2.83487
2.50134
2.21347
2.02623
1.80612
1.61587
1.55064
1.4717
1.31265
1.25979
1.25669
1.22345
1.17416
1.15935
1.16126
1.15318
1.13888
1.13906
1.14947
1.16124
1.16759
1.17732
1.19487
1.20091
1.23619
1.35744
1.56745
1.86271
2.11638
2.18506
2.20533
2.22348
2.21245
2.1744
2.12613
2.10768
2.09256
2.05226
1.98971
1.93854
1.89491
1.8322
1.78136
1.75286
1.71876
1.68398
1.6615
1.64391
1.6229
1.60635
1.61121
1.63136
1.65331
1.70427
1.75905
1.76516
1.75161
1.74692
1.74621
1.73442
1.70938
1.69125
1.6824
1.67507
1.66137
1.64087
1.62681
1.62063
1.6163
1.61695
1.62246
1.63764
1.68363
1.77353
1.86543
1.91112
1.92364
1.92101
1.90431
1.87356
1.80296
1.65368
1.49845
1.44814
1.44352
1.4434
1.44342
1.44375
1.44537
1.45076
1.46154
1.46833
1.46859
3.33865
3.32247
3.23623
3.06772
2.81272
2.52082
2.30201
2.0892
1.87823
1.7561
1.64558
1.47276
1.3639
1.33753
1.29433
1.20921
1.17274
1.17518
1.16253
1.1375
1.13619
1.143
1.16256
1.16988
1.17195
1.19213
1.29216
1.55871
1.85134
2.12528
2.2631
2.27002
2.25129
2.23536
2.21916
2.18651
2.13811
2.06477
2.021
1.992
1.93683
1.87523
1.84651
1.81907
1.76726
1.71978
1.68763
1.65436
1.62036
1.59129
1.56791
1.54485
1.52278
1.50592
1.50797
1.51139
1.52171
1.55305
1.56265
1.55501
1.55159
1.55634
1.55244
1.54137
1.53911
1.54172
1.54453
1.54162
1.54137
1.54727
1.56247
1.57254
1.57864
1.58643
1.59765
1.62007
1.66417
1.7262
1.78585
1.833
1.86883
1.88744
1.88693
1.86823
1.8195
1.69641
1.52082
1.44879
1.44348
1.4435
1.44408
1.44636
1.45305
1.46424
1.46951
1.46955
3.30591
3.3072
3.28745
3.19705
3.01386
2.77592
2.57638
2.35008
2.10139
1.9679
1.87201
1.7077
1.52641
1.48183
1.44151
1.35494
1.29163
1.27572
1.23939
1.17776
1.16281
1.16654
1.17845
1.20643
1.30729
1.49472
1.8155
2.14579
2.23798
2.30976
2.29642
2.26711
2.22514
2.18485
2.13224
2.07929
2.02801
1.96456
1.92067
1.87653
1.81199
1.78035
1.77317
1.75229
1.70064
1.65948
1.637
1.61349
1.57793
1.54416
1.52071
1.49991
1.48032
1.46005
1.45088
1.45263
1.4529
1.46955
1.48934
1.48817
1.48522
1.48807
1.48546
1.48079
1.48062
1.48552
1.48732
1.48651
1.48994
1.50368
1.52912
1.55513
1.56786
1.57964
1.59362
1.60786
1.62483
1.64997
1.68251
1.71645
1.75308
1.79627
1.83559
1.85012
1.8443
1.80667
1.71239
1.55235
1.45716
1.44545
1.44548
1.44781
1.45592
1.46725
1.47094
1.47083
3.27352
3.27454
3.26953
3.24157
3.14387
2.96195
2.78277
2.59642
2.3544
2.16375
2.0489
1.91668
1.76176
1.66606
1.58698
1.47222
1.39145
1.36612
1.32596
1.24203
1.18954
1.20204
1.26793
1.49604
1.82341
2.09317
2.35116
2.38671
2.33785
2.29252
2.25958
2.20018
2.12783
2.0435
1.98863
1.9661
1.93039
1.88154
1.83903
1.78052
1.728
1.71456
1.70296
1.67032
1.61056
1.58762
1.58034
1.56337
1.52087
1.48816
1.47054
1.45168
1.43159
1.41671
1.40217
1.4009
1.40428
1.40966
1.43274
1.44148
1.44132
1.43928
1.43361
1.43223
1.43334
1.43846
1.44332
1.44727
1.45663
1.47407
1.4994
1.53187
1.55385
1.56553
1.57608
1.58543
1.59461
1.60852
1.62854
1.6507
1.67356
1.69966
1.73126
1.7669
1.79224
1.79699
1.77907
1.71378
1.58334
1.4704
1.44876
1.44999
1.45826
1.46945
1.47252
1.47236
3.26305
3.24614
3.24113
3.23298
3.19869
3.09871
2.94715
2.77313
2.5557
2.38332
2.24721
2.07957
1.93356
1.84487
1.76971
1.64215
1.5028
1.46944
1.4492
1.41211
1.45349
1.59706
1.88431
2.29018
2.43001
2.52057
2.51428
2.46126
2.38532
2.2752
2.19063
2.13064
2.0689
1.99165
1.94275
1.90378
1.85475
1.80699
1.75489
1.69083
1.66184
1.64684
1.62137
1.57619
1.51355
1.50011
1.50291
1.49002
1.44397
1.4269
1.41709
1.39845
1.37804
1.37067
1.3576
1.34547
1.35165
1.35814
1.36615
1.38986
1.40411
1.40323
1.39482
1.39474
1.39839
1.40428
1.41148
1.41856
1.4284
1.44409
1.46793
1.50026
1.53144
1.55039
1.56198
1.57216
1.58251
1.59246
1.60319
1.61842
1.63477
1.648
1.65974
1.67499
1.70036
1.7324
1.74662
1.74228
1.70542
1.6101
1.49629
1.46245
1.46311
1.46989
1.4741
1.47407
3.29474
3.24759
3.23557
3.22957
3.22115
3.17021
3.06211
2.92508
2.73223
2.55562
2.42534
2.26933
2.11376
1.98734
1.90312
1.79782
1.68102
1.62948
1.67375
1.85388
2.17773
2.4459
2.68789
2.78838
2.75435
2.69141
2.59324
2.47126
2.35665
2.24435
2.16799
2.11759
2.05806
1.99249
1.93554
1.87807
1.81848
1.76343
1.70343
1.64933
1.62347
1.5992
1.56168
1.50101
1.42885
1.41319
1.41703
1.40258
1.35942
1.35573
1.35493
1.33726
1.32293
1.31849
1.30768
1.29308
1.29501
1.3113
1.31411
1.32559
1.3584
1.36665
1.35862
1.35748
1.36284
1.36874
1.37525
1.38319
1.39478
1.41379
1.44375
1.4833
1.51948
1.54083
1.55078
1.55622
1.56166
1.5726
1.58707
1.60105
1.61206
1.61699
1.6204
1.62513
1.63397
1.65166
1.68276
1.70578
1.70679
1.68798
1.63123
1.53007
1.47686
1.47349
1.47463
1.47424
3.30193
3.26791
3.24752
3.23547
3.22328
3.19358
3.13296
3.03986
2.88866
2.72649
2.58986
2.40996
2.26782
2.15387
2.06394
1.9664
1.99744
2.14045
2.43458
2.9103
3.08361
3.12934
3.09511
3.04435
2.95918
2.8205
2.66719
2.5333
2.41283
2.29893
2.22281
2.17454
2.11539
2.03105
1.94641
1.87807
1.81218
1.74706
1.67654
1.63024
1.60665
1.57861
1.53888
1.46983
1.40089
1.3757
1.35843
1.32649
1.28333
1.27532
1.26913
1.25601
1.24759
1.23862
1.23395
1.22719
1.22713
1.25108
1.26278
1.26583
1.28747
1.32004
1.32602
1.32691
1.32903
1.33381
1.34235
1.3534
1.36759
1.38887
1.42039
1.46041
1.49843
1.52113
1.53257
1.54088
1.5483
1.55891
1.57969
1.592
1.59543
1.5968
1.5946
1.59469
1.59815
1.60403
1.6173
1.64784
1.68198
1.69043
1.68466
1.64722
1.5568
1.48608
1.47618
1.47465
3.34238
3.32878
3.28865
3.24115
3.20646
3.19084
3.17012
3.12137
3.02035
2.871
2.73896
2.57291
2.41252
2.36103
2.42544
2.62129
2.98114
3.23404
3.48349
3.5848
3.51528
3.39847
3.24956
3.10058
2.95946
2.83203
2.72735
2.63736
2.53275
2.40534
2.28593
2.19836
2.1366
2.06957
1.99591
1.93204
1.85339
1.75746
1.67735
1.63576
1.60762
1.57226
1.52917
1.45954
1.39932
1.37024
1.34279
1.30294
1.26767
1.24798
1.22506
1.2036
1.17869
1.15103
1.14653
1.1484
1.14721
1.16154
1.192
1.19844
1.20824
1.24634
1.29078
1.30029
1.30277
1.30807
1.31903
1.33486
1.35145
1.36884
1.39268
1.43051
1.47707
1.50485
1.51752
1.53032
1.54985
1.56695
1.57313
1.57655
1.57896
1.5778
1.57198
1.57318
1.57525
1.57774
1.58335
1.59926
1.63742
1.67028
1.67409
1.67355
1.64919
1.56242
1.48951
1.47578
3.25302
3.30565
3.28402
3.22854
3.20065
3.18951
3.18518
3.16418
3.10128
3.00013
2.8967
2.81399
2.88471
3.15054
3.54598
3.99151
4.14551
4.14802
4.09611
3.9837
3.79635
3.57437
3.378
3.20656
3.04931
2.92228
2.82355
2.73248
2.63267
2.50239
2.36416
2.25295
2.16734
2.11758
2.08274
2.02015
1.92497
1.78353
1.69565
1.67976
1.65614
1.61066
1.54047
1.47239
1.43337
1.39967
1.36017
1.31665
1.27899
1.23916
1.20454
1.17598
1.14429
1.11845
1.10736
1.10723
1.10326
1.10244
1.11678
1.13588
1.14794
1.17203
1.22474
1.26401
1.27397
1.28068
1.29111
1.307
1.32656
1.34752
1.37449
1.41657
1.46815
1.49811
1.51135
1.52342
1.53894
1.5513
1.55532
1.5582
1.56029
1.56067
1.55813
1.55531
1.55507
1.5562
1.55906
1.56838
1.59674
1.64857
1.67792
1.68169
1.67732
1.64356
1.55939
1.48399
2.58285
3.12869
3.28226
3.26888
3.2539
3.22173
3.18901
3.15718
3.13796
3.18816
3.40095
3.81856
4.27552
4.53187
4.68835
4.67109
4.5575
4.39639
4.23663
4.0607
3.8752
3.69944
3.53448
3.37642
3.22513
3.09526
2.97365
2.82926
2.66011
2.49654
2.38413
2.30747
2.23711
2.16565
2.07634
1.97639
1.87243
1.79142
1.74125
1.69114
1.63354
1.57163
1.51046
1.45735
1.41613
1.37678
1.32967
1.2798
1.23671
1.2065
1.17964
1.15158
1.12569
1.1054
1.0915
1.08236
1.07088
1.06123
1.06347
1.07468
1.09304
1.1147
1.14921
1.19963
1.23132
1.25068
1.2696
1.29099
1.31582
1.34213
1.37268
1.41542
1.47049
1.50155
1.51147
1.52284
1.53595
1.54277
1.54662
1.54891
1.55115
1.54803
1.53381
1.52898
1.53198
1.5381
1.54652
1.56131
1.58649
1.62715
1.65686
1.66201
1.66434
1.66271
1.63239
1.53448
1.72375
2.40716
2.95036
3.2298
3.2218
3.22058
3.24224
3.37779
3.73093
4.30351
4.88706
5.30743
5.46997
5.41393
5.31084
5.07652
4.77723
4.50631
4.31295
4.1464
3.98812
3.82403
3.64288
3.46166
3.30428
3.16666
3.03443
2.89016
2.72834
2.57324
2.45487
2.36079
2.2738
2.18307
2.08554
1.98672
1.89725
1.82963
1.76731
1.70232
1.6376
1.57397
1.5144
1.46219
1.41883
1.37677
1.32844
1.27589
1.23105
1.19933
1.17106
1.14259
1.11722
1.09846
1.0852
1.07223
1.05832
1.0461
1.04179
1.04078
1.04467
1.05323
1.06772
1.09952
1.14733
1.19477
1.23629
1.27367
1.30962
1.34437
1.38057
1.42874
1.48471
1.51459
1.52679
1.53522
1.54113
1.54542
1.54905
1.55067
1.53994
1.51241
1.49893
1.50092
1.50789
1.52083
1.54046
1.56221
1.58894
1.62111
1.64581
1.65205
1.65329
1.65383
1.65004
1.58834
1.4227
1.60999
2.18423
2.83774
3.05924
3.40274
3.93565
4.56935
5.18217
5.57511
5.71012
5.6893
5.63481
5.54205
5.40164
5.25902
5.05692
4.80855
4.5648
4.33569
4.11956
3.89768
3.71747
3.56747
3.41492
3.27254
3.13955
3.00748
2.87359
2.74363
2.61949
2.49701
2.37951
2.2728
2.17856
2.09266
2.00939
1.92597
1.84545
1.77042
1.69968
1.6339
1.57395
1.52087
1.47444
1.42845
1.37569
1.31729
1.26617
1.2286
1.19787
1.16895
1.14215
1.1206
1.10364
1.08599
1.06638
1.05043
1.03559
1.02521
1.0255
1.02989
1.03961
1.05731
1.08866
1.13426
1.18939
1.24688
1.29884
1.34274
1.38845
1.45295
1.51777
1.54095
1.54755
1.55178
1.55471
1.55595
1.55506
1.5432
1.50739
1.47714
1.47434
1.47728
1.4833
1.50003
1.53503
1.57481
1.60627
1.62634
1.63647
1.64494
1.65084
1.65168
1.65346
1.61646
1.40039
1.41153
1.55262
2.08097
3.13446
4.21758
5.10359
5.66273
6.06063
6.18781
6.1069
5.93038
5.69324
5.49055
5.35005
5.20883
5.05494
4.89271
4.68648
4.44935
4.20344
3.95665
3.70411
3.47382
3.29331
3.1522
3.02761
2.90593
2.78879
2.67794
2.56488
2.44247
2.31772
2.20699
2.11709
2.03879
1.95822
1.87476
1.79504
1.71878
1.64808
1.58623
1.52979
1.47861
1.43399
1.38967
1.33728
1.27814
1.22738
1.19189
1.1642
1.13702
1.10955
1.08856
1.07395
1.05713
1.03709
1.01853
1.00904
1.0093
1.01268
1.01995
1.03031
1.04368
1.0645
1.09857
1.1516
1.22081
1.28509
1.33545
1.39019
1.46935
1.5397
1.55949
1.56514
1.569
1.57165
1.57187
1.55743
1.51759
1.47476
1.46238
1.4632
1.4657
1.47023
1.48531
1.5345
1.59651
1.62271
1.62882
1.63238
1.63778
1.6474
1.66034
1.66607
1.6285
1.40039
1.41153
1.55262
2.08097
3.13446
4.21758
5.10359
5.66273
6.06063
6.18781
6.1069
5.93038
5.69324
5.49055
5.35005
5.20883
5.05494
4.89271
4.68648
4.44935
4.20344
3.95665
3.70411
3.47382
3.29331
3.1522
3.02761
2.90593
2.78879
2.67794
2.56488
2.44247
2.31772
2.20699
2.11709
2.03879
1.95822
1.87476
1.79504
1.71878
1.64808
1.58623
1.52979
1.47861
1.43399
1.38967
1.33728
1.27814
1.22738
1.19189
1.1642
1.13702
1.10955
1.08856
1.07395
1.05713
1.03709
1.01853
1.00904
1.0093
1.01268
1.01995
1.03031
1.04368
1.0645
1.09858
1.15154
1.22055
1.28506
1.33575
1.39033
1.46939
1.53968
1.55942
1.56513
1.56903
1.57158
1.57186
1.55991
1.51917
1.47473
1.46225
1.46375
1.46659
1.47118
1.48623
1.53132
1.59992
1.62552
1.62893
1.6318
1.63704
1.64983
1.66485
1.66791
1.62912
1.4227
1.60999
2.18423
2.83774
3.05924
3.40274
3.93565
4.56935
5.18217
5.57511
5.71012
5.6893
5.63481
5.54205
5.40164
5.25902
5.05692
4.80855
4.5648
4.33569
4.11956
3.89768
3.71747
3.56747
3.41492
3.27254
3.13955
3.00748
2.87359
2.74363
2.61949
2.49701
2.37951
2.2728
2.17856
2.09266
2.00939
1.92597
1.84545
1.77042
1.69968
1.63391
1.57395
1.52087
1.47444
1.42845
1.37569
1.31729
1.26617
1.2286
1.19787
1.16895
1.14215
1.1206
1.10364
1.08599
1.06638
1.05043
1.03559
1.02521
1.0255
1.02989
1.03961
1.05731
1.08866
1.13426
1.18939
1.24688
1.29885
1.34278
1.38847
1.45302
1.51772
1.54118
1.54787
1.55204
1.55486
1.5562
1.55498
1.54321
1.5075
1.47896
1.47737
1.4805
1.48618
1.50126
1.53448
1.57363
1.60493
1.62519
1.6357
1.64591
1.65226
1.65312
1.65554
1.61832
1.72375
2.40716
2.95036
3.2298
3.2218
3.22058
3.24224
3.37779
3.73093
4.30351
4.88706
5.30743
5.46997
5.41393
5.31084
5.07652
4.77723
4.50631
4.31295
4.1464
3.98812
3.82403
3.64288
3.46166
3.30428
3.16666
3.03443
2.89016
2.72834
2.57324
2.45487
2.36079
2.2738
2.18307
2.08554
1.98672
1.89725
1.82963
1.76731
1.70232
1.6376
1.57397
1.5144
1.46219
1.41883
1.37677
1.32844
1.27589
1.23105
1.19933
1.17106
1.14259
1.11722
1.09846
1.0852
1.07223
1.05832
1.0461
1.04179
1.04078
1.04467
1.05323
1.06772
1.09952
1.14733
1.19477
1.23629
1.27367
1.30962
1.34438
1.38059
1.42876
1.48466
1.51475
1.52704
1.53537
1.54117
1.54537
1.54896
1.5505
1.53988
1.51227
1.4984
1.50036
1.50712
1.51972
1.53917
1.56108
1.58812
1.6194
1.64535
1.65324
1.65447
1.65507
1.6508
1.58772
2.58285
3.12869
3.28226
3.26888
3.2539
3.22173
3.18901
3.15718
3.13796
3.18816
3.40095
3.81856
4.27552
4.53187
4.68835
4.67109
4.5575
4.39639
4.23663
4.0607
3.8752
3.69944
3.53448
3.37642
3.22513
3.09526
2.97365
2.82926
2.66011
2.49654
2.38413
2.30747
2.23711
2.16565
2.07634
1.97639
1.87243
1.79142
1.74125
1.69114
1.63354
1.57163
1.51046
1.45735
1.41613
1.37678
1.32967
1.2798
1.23671
1.2065
1.17964
1.15158
1.12569
1.1054
1.0915
1.08236
1.07088
1.06123
1.06347
1.07468
1.09304
1.1147
1.14921
1.19963
1.23132
1.25068
1.2696
1.29099
1.31582
1.34213
1.37269
1.41543
1.47052
1.50154
1.51143
1.52285
1.53594
1.54265
1.5464
1.54865
1.55089
1.5477
1.53297
1.52789
1.53083
1.53683
1.54526
1.56054
1.58577
1.62622
1.65812
1.66377
1.66657
1.66444
1.63247
1.53292
3.25302
3.30565
3.28402
3.22854
3.20065
3.18951
3.18518
3.16418
3.10128
3.00013
2.8967
2.81399
2.88471
3.15054
3.54598
3.99151
4.14551
4.14802
4.09611
3.9837
3.79635
3.57437
3.378
3.20656
3.04931
2.92228
2.82355
2.73248
2.63267
2.50239
2.36416
2.25295
2.16734
2.11758
2.08274
2.02015
1.92497
1.78353
1.69565
1.67976
1.65614
1.61066
1.54047
1.47239
1.43337
1.39967
1.36017
1.31665
1.27899
1.23916
1.20454
1.17598
1.14429
1.11845
1.10736
1.10723
1.10326
1.10244
1.11678
1.13588
1.14794
1.17203
1.22475
1.264
1.27397
1.28068
1.29111
1.307
1.32655
1.34752
1.3745
1.41658
1.46816
1.4981
1.51132
1.52341
1.53897
1.55131
1.55524
1.55801
1.56001
1.56025
1.55675
1.55385
1.55422
1.55554
1.55854
1.56793
1.59611
1.64859
1.679
1.68266
1.67757
1.64289
1.55761
1.48326
3.34238
3.32878
3.28865
3.24115
3.20646
3.19084
3.17012
3.12137
3.02035
2.871
2.73896
2.57291
2.41252
2.36103
2.42544
2.62129
2.98114
3.23404
3.48349
3.5848
3.51528
3.39847
3.24956
3.10058
2.95946
2.83203
2.72735
2.63736
2.53275
2.40534
2.28593
2.19836
2.1366
2.06957
1.99591
1.93204
1.85339
1.75746
1.67735
1.63576
1.60762
1.57226
1.52917
1.45954
1.39932
1.37024
1.34279
1.30294
1.26767
1.24798
1.22507
1.2036
1.17869
1.15103
1.14653
1.1484
1.14721
1.16154
1.192
1.19844
1.20824
1.24634
1.29079
1.30029
1.30276
1.30807
1.31903
1.33486
1.35145
1.36884
1.39268
1.43051
1.47707
1.50486
1.51751
1.53031
1.5499
1.56702
1.57312
1.57649
1.57883
1.57758
1.57154
1.5727
1.57489
1.57748
1.58317
1.59914
1.63748
1.67087
1.67498
1.67425
1.64903
1.56094
1.48884
1.47574
3.30193
3.26791
3.24752
3.23547
3.22328
3.19358
3.13296
3.03986
2.88866
2.72649
2.58986
2.40996
2.26782
2.15387
2.06394
1.9664
1.99744
2.14045
2.43458
2.9103
3.08361
3.12934
3.09511
3.04435
2.95918
2.8205
2.66719
2.5333
2.41283
2.29893
2.22281
2.17454
2.11539
2.03105
1.94641
1.87807
1.81218
1.74706
1.67654
1.63024
1.60665
1.57861
1.53888
1.46983
1.40089
1.3757
1.35843
1.32649
1.28333
1.27532
1.26913
1.25601
1.24759
1.23862
1.23395
1.22719
1.22713
1.25108
1.26278
1.26583
1.28746
1.32004
1.32602
1.32691
1.32903
1.33381
1.34235
1.3534
1.36759
1.38887
1.42039
1.46041
1.49844
1.52113
1.53257
1.54088
1.54832
1.55895
1.57976
1.59201
1.59537
1.5967
1.59454
1.59477
1.59828
1.60418
1.61748
1.64811
1.68242