/*--------------------------------*- C++ -*----------------------------------*\
  =========                 |
  \\      /  F ield         | OpenFOAM: The Open Source CFD Toolbox
   \\    /   O peration     | Website:  https://openfoam.org
    \\  /    A nd           | Version:  7
     \\/     M anipulation  |
\*---------------------------------------------------------------------------*/
FoamFile
{
    version     2.0;
    format      ascii;
    class       volScalarField;
    location    "0.5";
    object      T;
}
// * * * * * * * * * * * * * * * * * * * * * * * * * * * * * * * * * * * * * //

dimensions      [0 0 0 1 0 0 0];

internalField   nonuniform List<scalar> 
4608
(
1
1
1
1
1
1
1
1
1
1
1
1
1
1
1
1
1
1
1
1
1
1
1
1
1
1
1
1
1
1
1
1
1
1
1
1
1
1
1
1
1
1
1
1
1
1
1
1
1
1
1
1
1
1
1
1
1
1
1
1
1
1
1
1
1
1
1
1
1
1
1
1
1
1
1
1
1
1
1
1
1
1
1
1
1
1
1
1
1
1
1
1
1
1
1
1
1
1
1
1
1
1
1
1
1
1
1
1
1
1
1
1
1
1
1
1
1
1
1
1
1
1
1
1
1
1
1
1
1
1
1
1
1
1
1
1
1
1
1
1
1
1
1
1
1
1
1
1
1
1
1
1
1
1
1
1
1
1
1
1
1
1
1
1
1
1
1
1
1
1
1
1
1
1
1
1
1
1
1
1
1
1
1
1
1
1
1
1
1
1
1
1
1
1
1
1
1
1
1
1
1
1
1
1
1
1
1
1
1
1
1
1
1
1
1
1
1
1
1
1
1
1
1
1
1
1
1
1
1
1
1
1
1
1
1
1
1
1
1
1
1
1
1
1
1
1
1
1
1
1
1
1
1
1
1
1
1
1
1
1
1
1
1
1
1
1
1
1
1
1
1
1
1
1
1
1
1
1
1
1
1
1
1
1
1
1
1
1
1
1
1
1
1
1
1
1
1
1
1
1
1
1
1
1
1
1
1
1
1
1
1
1
1
1
1
1
1
1
1
1
1
1
1
1
1
1
1
1
1
1
1
1
1
1
1
1
1
1
1
1
1
1
1
1
1
1
1
1
1
1
1
1
1
1
1
1
1
1
1
1
1
1
1
1
1
1
1
1
1
1
1
1
1
1
1
1
1
1
1
1
1
1
1
1
1
1
1
1
1
1
1
1
1
1
1
1
1
1
1
1
1
1
1
1
1
1
1
1
1
1
1
1
1
1
1
1
1
1
1
1
1
1
1
1
1
1
1
1
1
1
1
1
1
1
1
1
1
1
1
1
1
1
1
1
1
1
1
1
1
1
1
1
1
1
1
1
1
1
1
1
1
1
1
1
1
1
1
1
1
1
1
1
1
1
1
1
1
1
1
1
1
1
1
1
1
1
1
1
1
1
1
1
1
1
1
1
1
1
1
1
1
1
1
1
1
1
1
1
1
1
1
1
1
1
1
1
1
1
1
1
1
1
1
1
1
1
1
1
1
1
1
1
1
1
1
1
1
1
1
1
1
1
1
1
1
1
1
1
1
1
1
1
1
1
1
1
1
1
1
1
1
1
1
1
1
1
1
1
1
1
1
1
1
1
1
1
1
1
1
1
1
1
1
1
1
1
1
1
1
1
1
1
1
1
1
1
1
1
1
1
1
1
1
1
1
1
1
1
1
1
1
1
1
1
1
1
1
1
1
1
1
1
1
1
1
1
1
1
1
1
1
1
1
1
1
1
1
1
1
1
1
1
1
1
1
1
1
1
1
1
1
1
1
1
1
1
1
1
1
1
1
1
1
1
1
1
1
1
1
1
1
1
1
1
1
1
1
1
1
1
1
1
1
1
1
1
1
1
1
1
1
1
1
1
1
1
1
1
1
1
1
1
1
1
1
1
1
1
1
1
1
1
1
1
1
1
1
1
1
1
1
1
1
1
1
1
1
1
1
1
1
1
1
1
1
1
1
1
1
1
1
1
1
1
1
1
1
1
1
1
1
1
1
1
1
1
1
1
1
1
1
1
1
1
1
1
1
1
1.07873
1.18261
1.28343
1.39324
1.49029
1.56756
1.64052
1.68469
1.69753
1.68063
1.6372
1.58504
1.54239
1.52614
1.51352
1.51447
1.52033
1.52715
1.53199
1.53409
1.53513
1.53638
1.53791
1.53906
1.00063
1.00682
1.03078
1.06967
1.14726
1.23149
1.3234
1.40635
1.48206
1.51901
1.54691
1.56502
1.56183
1.55418
1.54086
1.53643
1.53335
1.53163
1.53361
1.53583
1.53706
1.53877
1.54008
1.54123
1
0.999983
1.00008
1.00004
1.00124
1.00823
1.03685
1.11788
1.26707
1.45316
1.56438
1.62424
1.62337
1.61262
1.59151
1.56272
1.53915
1.53666
1.5403
1.54447
1.54503
1.546
1.5464
1.54738
1
1
1
1
0.999995
1.00001
0.999966
1.00071
1.0117
1.11245
1.3042
1.51433
1.59782
1.60768
1.60509
1.59589
1.57232
1.5597
1.56103
1.56005
1.55761
1.55801
1.55784
1.55802
1
1
1
1
1
1
0.999996
0.999998
0.999963
1.00057
1.01594
1.12721
1.35438
1.51934
1.62775
1.62844
1.61685
1.60235
1.5899
1.5803
1.57387
1.57203
1.57032
1.57071
1
1
1
1
1
1
1
1
0.999997
0.999997
0.999964
1.00093
1.03294
1.16576
1.40349
1.55041
1.62023
1.61889
1.61043
1.59978
1.5921
1.58699
1.57851
1.57774
1
1
1
1
1
1
1
1
1
1
0.999998
0.999993
1.00001
1.00294
1.0605
1.24715
1.48531
1.56429
1.59116
1.60029
1.60003
1.59208
1.58458
1.58054
1
1
1
1
1
1
1
1
1
1
1
0.999999
0.999999
0.99999
1.00038
1.01318
1.12582
1.34594
1.51924
1.58757
1.59244
1.59189
1.58892
1.58434
1
1
1
1
1
1
1
1
1
1
1
1
1
0.999998
0.999999
0.999996
1.00238
1.0521
1.2199
1.43797
1.53935
1.58971
1.59425
1.58957
1
1
1
1
1
1
1
1
1
1
1
1
1
1
1
1
0.999993
1.00052
1.01326
1.13238
1.34434
1.52149
1.57293
1.57917
1
1
1
1
1
1
1
1
1
1
1
1
1
1
1
1
0.999999
0.999997
1.00004
1.00468
1.07439
1.27504
1.46713
1.55109
1
1
1
1
1
1
1
1
1
1
1
1
1
1
1
1
1
0.999999
0.999999
1
1.00202
1.03513
1.22133
1.4196
1
1
1
1
1
1
1
1
1
1
1
1
1
1
1
1
1
1
1
1
0.999999
1.00057
1.02413
1.15841
1
1
1
1
1
1
1
1
1
1
1
1
1
1
1
1
1
1
1
1
1
1
1.00036
1.01094
1
1
1
1
1
1
1
1
1
1
1
1
1
1
1
1
1
1
1
1
1
1
1
1.00001
1
1
1
1
1
1
1
1
1
1
1
1
1
1
1
1
1
1
1
1
1
1
1
0.999999
1
1
1
1
1
1
1
1
1
1
1
1
1
1
1
1
1
1
1
1
1
1
1
0.999999
1
1
1
1
1
1
1
1
1
1
1
1
1
1
1
1
1
1
1
1
1
1
1
1.00001
1
1
1
1
1
1
1
1
1
1
1
1
1
1
1
1
1
1
1
1
1
1
1.00036
1.01094
1
1
1
1
1
1
1
1
1
1
1
1
1
1
1
1
1
1
1
1
0.999999
1.00057
1.02413
1.15841
1
1
1
1
1
1
1
1
1
1
1
1
1
1
1
1
1
0.999999
0.999999
1
1.00202
1.03513
1.22133
1.4196
1
1
1
1
1
1
1
1
1
1
1
1
1
1
1
1
0.999999
0.999997
1.00004
1.00468
1.07439
1.27504
1.46713
1.55109
1
1
1
1
1
1
1
1
1
1
1
1
1
1
1
1
0.999993
1.00052
1.01326
1.13238
1.34434
1.52149
1.57293
1.57917
1
1
1
1
1
1
1
1
1
1
1
1
1
0.999998
0.999999
0.999996
1.00238
1.0521
1.2199
1.43797
1.53935
1.58971
1.59425
1.58957
1
1
1
1
1
1
1
1
1
1
1
0.999999
0.999999
0.99999
1.00038
1.01318
1.12582
1.34594
1.51924
1.58757
1.59244
1.59189
1.58892
1.58434
1
1
1
1
1
1
1
1
1
1
0.999998
0.999993
1.00001
1.00294
1.0605
1.24715
1.48531
1.56429
1.59116
1.60029
1.60003
1.59208
1.58458
1.58054
1
1
1
1
1
1
1
1
0.999997
0.999997
0.999964
1.00093
1.03294
1.16576
1.40349
1.55041
1.62023
1.61889
1.61043
1.59978
1.5921
1.58699
1.57851
1.57774
1
1
1
1
1
1
0.999996
0.999998
0.999963
1.00057
1.01594
1.12721
1.35438
1.51934
1.62775
1.62844
1.61685
1.60235
1.5899
1.5803
1.57387
1.57203
1.57032
1.57071
1
1
1
1
0.999995
1.00001
0.999966
1.00071
1.0117
1.11245
1.3042
1.51433
1.59782
1.60768
1.60509
1.59589
1.57232
1.5597
1.56103
1.56005
1.55761
1.55801
1.55784
1.55802
1
0.999983
1.00008
1.00004
1.00124
1.00823
1.03685
1.11788
1.26707
1.45316
1.56438
1.62424
1.62337
1.61262
1.59151
1.56272
1.53915
1.53666
1.5403
1.54447
1.54503
1.546
1.5464
1.54738
1.00063
1.00682
1.03078
1.06967
1.14726
1.23149
1.3234
1.40635
1.48206
1.51901
1.54691
1.56502
1.56183
1.55418
1.54086
1.53643
1.53335
1.53163
1.53361
1.53583
1.53706
1.53877
1.54008
1.54123
1.07873
1.18261
1.28343
1.39324
1.49029
1.56756
1.64052
1.68469
1.69753
1.68063
1.6372
1.58504
1.54239
1.52614
1.51352
1.51447
1.52033
1.52715
1.53199
1.53409
1.53513
1.53638
1.53791
1.53906
1.39642
1.23757
1.10199
0.978357
0.983147
1.00209
0.998032
0.995537
1.01078
1.03505
1.04572
1.05177
1.06469
1.07679
1.07616
1.07005
1.06824
1.07014
1.0711
1.07231
1.07215
1.0707
1.06703
1.06052
1.057
1.05634
1.05749
1.05731
1.05507
1.05054
1.04582
1.0425
1.04137
1.04717
1.06906
1.12402
1.20423
1.28682
1.34971
1.40966
1.4551
1.48952
1.51919
1.54913
1.57058
1.5847
1.59431
1.59599
1.59827
1.59615
1.59398
1.59494
1.59445
1.58845
1.582
1.57542
1.56553
1.55588
1.54681
1.53867
1.53139
1.52253
1.51158
1.4992
1.48601
1.4737
1.46307
1.45271
1.44036
1.4255
1.41094
1.3992
1.38758
1.37216
1.34831
1.30947
1.25239
1.18522
1.11874
1.06554
1.03142
1.01797
1.01636
1.01694
1.0181
1.01843
1.01765
1.01475
1.01305
1.01294
1.01296
1.01313
1.01393
1.01621
1.01855
1.01878
1.49397
1.41305
1.33184
1.22621
1.15504
1.13573
1.10198
1.05551
1.04773
1.04338
1.03103
1.02214
1.02597
1.03251
1.03204
1.03132
1.03368
1.04016
1.04469
1.04697
1.04815
1.04874
1.04848
1.04663
1.04542
1.04545
1.04824
1.0477
1.04569
1.04261
1.04324
1.05403
1.08958
1.15309
1.22146
1.28083
1.32658
1.33485
1.34039
1.34672
1.35821
1.36809
1.37746
1.38783
1.40393
1.41537
1.42133
1.42403
1.42647
1.43247
1.43248
1.43155
1.43974
1.44351
1.44345
1.44637
1.44874
1.44772
1.44169
1.43167
1.42479
1.41764
1.40768
1.39617
1.38522
1.3758
1.36716
1.35699
1.34363
1.32783
1.31218
1.29866
1.28646
1.27368
1.2571
1.2305
1.19301
1.15389
1.13054
1.1148
1.09302
1.06012
1.02898
1.01848
1.01779
1.01771
1.017
1.01457
1.01304
1.01292
1.01294
1.01315
1.01407
1.01645
1.0187
1.01891
1.53286
1.4903
1.42865
1.35505
1.27075
1.21575
1.16756
1.10567
1.07117
1.05686
1.03433
1.00922
1.00852
1.01325
1.00885
1.00566
1.0068
1.01272
1.01875
1.0198
1.02069
1.0243
1.02651
1.02558
1.02541
1.02741
1.03147
1.03379
1.03678
1.05002
1.097
1.18335
1.27246
1.31706
1.3532
1.36371
1.35924
1.35232
1.34741
1.34066
1.32939
1.31564
1.30722
1.30215
1.29527
1.28786
1.28848
1.28782
1.28737
1.29237
1.30198
1.30653
1.31389
1.3304
1.34335
1.35391
1.37133
1.37788
1.3739
1.3628
1.35473
1.34782
1.33837
1.32744
1.31815
1.31072
1.30317
1.29215
1.27524
1.25521
1.23621
1.21811
1.19997
1.18325
1.17064
1.1631
1.15829
1.14852
1.13501
1.12581
1.1201
1.11123
1.08917
1.05116
1.02348
1.01731
1.01551
1.01377
1.0129
1.01284
1.01286
1.01307
1.01407
1.01673
1.01894
1.01909
1.55216
1.53325
1.49303
1.44023
1.36764
1.3032
1.25574
1.19425
1.14111
1.12341
1.09905
1.04834
1.03127
1.03149
1.02174
1.00761
1.00414
1.00452
1.00115
0.996853
0.997315
1.00139
1.00546
1.00774
1.0114
1.01791
1.02111
1.03766
1.09169
1.17485
1.27606
1.35935
1.38089
1.3864
1.38446
1.37817
1.36598
1.3516
1.3435
1.33615
1.32187
1.3028
1.28888
1.27781
1.26141
1.24797
1.24069
1.23204
1.22372
1.21923
1.21652
1.21386
1.21071
1.21203
1.21747
1.22259
1.23589
1.24793
1.24822
1.24167
1.23622
1.23394
1.22869
1.22081
1.21677
1.21503
1.21331
1.20936
1.20108
1.18967
1.17724
1.16254
1.14607
1.12978
1.11771
1.11402
1.11705
1.12525
1.12739
1.12587
1.12304
1.12168
1.11955
1.10794
1.07335
1.03004
1.01434
1.01294
1.01291
1.01291
1.01295
1.0132
1.01438
1.01726
1.01922
1.0193
1.56593
1.55807
1.53649
1.49947
1.44454
1.38146
1.32931
1.27326
1.21894
1.18864
1.15647
1.10102
1.06597
1.06058
1.04907
1.02404
1.01004
1.01
1.00477
0.997414
0.997574
1.00047
1.00697
1.00913
1.01023
1.01978
1.06619
1.18
1.28059
1.36014
1.39449
1.40324
1.39954
1.39391
1.38591
1.37299
1.35657
1.33499
1.32147
1.3115
1.2942
1.27586
1.26764
1.25977
1.245
1.23275
1.22531
1.21727
1.20899
1.20204
1.1968
1.19228
1.1878
1.18142
1.18101
1.18057
1.18211
1.18886
1.18968
1.1862
1.18288
1.18299
1.1807
1.17608
1.17528
1.17598
1.17654
1.17518
1.17146
1.16558
1.15738
1.14396
1.12581
1.10764
1.09303
1.08477
1.08316
1.08579
1.09389
1.1033
1.11278
1.12029
1.12238
1.12163
1.11416
1.0852
1.03704
1.01469
1.01297
1.01296
1.01302
1.01338
1.01491
1.018
1.01955
1.01957
1.57536
1.57205
1.56395
1.54132
1.50013
1.44793
1.40208
1.34643
1.28412
1.25131
1.22544
1.17696
1.12188
1.11193
1.1011
1.07549
1.05397
1.04756
1.0349
1.01509
1.00978
1.0109
1.01501
1.02687
1.0729
1.15348
1.27744
1.38154
1.40032
1.41371
1.40957
1.40246
1.39233
1.38039
1.36294
1.34427
1.32644
1.30639
1.29196
1.27715
1.25735
1.24929
1.2479
1.24191
1.22632
1.21692
1.2128
1.20766
1.19871
1.19025
1.18483
1.18044
1.17644
1.17023
1.16515
1.16404
1.16256
1.16578
1.16877
1.16778
1.16574
1.16573
1.16409
1.16054
1.15872
1.15918
1.15886
1.15683
1.15364
1.14922
1.14224
1.13106
1.11337
1.09491
1.08077
1.07102
1.06575
1.06479
1.06653
1.07348
1.08529
1.09967
1.11252
1.11816
1.11799
1.11093
1.088
1.04544
1.01729
1.01344
1.01335
1.01368
1.01562
1.01884
1.01995
1.01993
1.57848
1.57633
1.57337
1.56472
1.54084
1.49976
1.45879
1.41418
1.35655
1.3107
1.2797
1.24117
1.19858
1.17532
1.15362
1.11737
1.0906
1.08287
1.07044
1.04481
1.02561
1.03127
1.06288
1.16439
1.28439
1.36676
1.44154
1.44149
1.42476
1.40986
1.39919
1.38189
1.36106
1.33647
1.31821
1.30845
1.2955
1.27944
1.26503
1.24556
1.23001
1.22821
1.22621
1.2171
1.19945
1.19708
1.19673
1.19307
1.18145
1.17369
1.17042
1.16655
1.16213
1.15782
1.15102
1.14907
1.14834
1.14764
1.15126
1.15251
1.15213
1.15069
1.14783
1.14451
1.14148
1.14081
1.13981
1.13788
1.13571
1.13199
1.12465
1.11393
1.09863
1.0809
1.06693
1.058
1.05325
1.05217
1.05279
1.05685
1.06561
1.07667
1.08798
1.09878
1.10618
1.1077
1.10355
1.08708
1.05307
1.02093
1.01404
1.01423
1.01632
1.01948
1.02039
1.02035
1.57803
1.57544
1.57273
1.56932
1.56027
1.5378
1.50468
1.46521
1.41456
1.37409
1.33992
1.29424
1.25514
1.23347
1.2136
1.17582
1.13179
1.12184
1.11506
1.1075
1.13048
1.19503
1.30036
1.41858
1.45393
1.47526
1.47232
1.45582
1.43289
1.40075
1.37518
1.35631
1.3371
1.31352
1.29773
1.28485
1.26938
1.25432
1.23729
1.21621
1.20838
1.20572
1.20012
1.18751
1.1713
1.17052
1.17249
1.16905
1.15677
1.15535
1.15419
1.15015
1.14515
1.14328
1.13803
1.13077
1.13131
1.13028
1.12991
1.13406
1.13684
1.13624
1.13207
1.12813
1.12442
1.12113
1.11876
1.11642
1.11374
1.10963
1.10275
1.093
1.08092
1.06728
1.05623
1.05031
1.04761
1.04654
1.04659
1.04944
1.05668
1.06445
1.07046
1.07613
1.0835
1.09179
1.09515
1.09387
1.08397
1.05889
1.02778
1.01768
1.01779
1.01965
1.02083
1.02082
1.58079
1.57318
1.57124
1.56951
1.56743
1.55713
1.53536
1.50622
1.46352
1.4237
1.39189
1.35184
1.31246
1.28101
1.25759
1.22586
1.19103
1.17928
1.19793
1.27417
1.3888
1.46368
1.52294
1.53929
1.52784
1.50924
1.48203
1.44944
1.41826
1.3869
1.36427
1.3481
1.32963
1.30885
1.28939
1.27104
1.25348
1.23748
1.21913
1.20219
1.19521
1.18946
1.1803
1.16331
1.14384
1.14211
1.14482
1.14122
1.13221
1.13409
1.13518
1.13069
1.12712
1.12628
1.12262
1.1138
1.11231
1.11346
1.11083
1.11192
1.11906
1.11962
1.11536
1.1098
1.10533
1.09966
1.09426
1.09013
1.08714
1.0846
1.08157
1.07661
1.06805
1.05707
1.04832
1.04361
1.04181
1.04178
1.0429
1.04668
1.05271
1.05731
1.06048
1.06335
1.06656
1.07125
1.0788
1.0841
1.08412
1.07877
1.06375
1.03699
1.02177
1.02069
1.02098
1.02087
1.57631
1.57146
1.56927
1.56817
1.56641
1.5611
1.55028
1.53259
1.50178
1.4675
1.43632
1.39251
1.35826
1.33026
1.30642
1.28067
1.29616
1.35059
1.44422
1.56795
1.60759
1.61435
1.60408
1.58678
1.56204
1.52607
1.48641
1.45121
1.41937
1.38899
1.36765
1.35271
1.33444
1.30948
1.28576
1.26707
1.24877
1.22985
1.20918
1.19575
1.18966
1.18259
1.17219
1.15266
1.13323
1.12865
1.12567
1.11793
1.10664
1.10744
1.10748
1.10438
1.10204
1.09981
1.0979
1.09184
1.08861
1.09249
1.09114
1.08864
1.09349
1.09957
1.09743
1.09245
1.08622
1.07962
1.07298
1.06684
1.06309
1.06204
1.06172
1.06039
1.0558
1.04806
1.042
1.03946
1.03832
1.03831
1.04182
1.0472
1.05053
1.05259
1.0533
1.05479
1.057
1.05879
1.06176
1.06898
1.07739
1.07938
1.07779
1.06796
1.04421
1.0244
1.02142
1.02098
1.57562
1.57461
1.56997
1.56409
1.55942
1.55758
1.55439
1.54636
1.52783
1.49844
1.47047
1.4326
1.39688
1.38566
1.40757
1.47722
1.57944
1.63145
1.68479
1.69357
1.67874
1.6532
1.61821
1.58157
1.54807
1.51558
1.48723
1.4631
1.4357
1.40302
1.37257
1.34978
1.33291
1.31432
1.29441
1.27737
1.25609
1.23005
1.20831
1.1978
1.19085
1.18116
1.16886
1.14881
1.13302
1.12688
1.12075
1.11036
1.10167
1.09788
1.09211
1.08568
1.07743
1.06897
1.06577
1.06286
1.05779
1.06045
1.06468
1.06236
1.06263
1.07269
1.0799
1.07696
1.07134
1.0653
1.0593
1.05277
1.04676
1.04407
1.04382
1.04439
1.045
1.0433
1.0392
1.03806
1.03871
1.04077
1.04289
1.04518
1.04718
1.04751
1.04713
1.04836
1.05019
1.05141
1.05281
1.05642
1.06585
1.07413
1.07501
1.07484
1.06852
1.04584
1.02524
1.02136
1.54243
1.5652
1.56323
1.55368
1.55091
1.55151
1.55161
1.54741
1.53612
1.51865
1.49945
1.48851
1.51488
1.58815
1.67821
1.77154
1.79677
1.78855
1.77415
1.75089
1.71298
1.66701
1.62378
1.5849
1.55012
1.52084
1.49647
1.47365
1.44905
1.41763
1.3846
1.35776
1.3364
1.32362
1.315
1.29942
1.27468
1.23639
1.21328
1.21109
1.20617
1.19382
1.17267
1.15319
1.14439
1.13682
1.12705
1.11573
1.10607
1.09506
1.08472
1.07562
1.06474
1.0554
1.04973
1.04677
1.04101
1.03463
1.03702
1.03853
1.03826
1.04181
1.05596
1.06016
1.05781
1.05329
1.04784
1.04149
1.03519
1.033
1.03319
1.03541
1.04028
1.04074
1.03922
1.03789
1.0381
1.03929
1.0399
1.04067
1.04203
1.04305
1.04321
1.04339
1.04392
1.04487
1.0458
1.04796
1.05502
1.06848
1.07591
1.07677
1.07558
1.0668
1.04435
1.02427
1.37668
1.51779
1.54974
1.55375
1.55324
1.54988
1.54598
1.54077
1.54105
1.55553
1.61061
1.70738
1.79768
1.84323
1.86357
1.85818
1.8349
1.80343
1.77268
1.741
1.70597
1.67013
1.63543
1.60218
1.57061
1.54336
1.51727
1.4854
1.44775
1.41106
1.38546
1.36787
1.35122
1.3339
1.31204
1.28707
1.26047
1.23967
1.2272
1.21436
1.19892
1.18149
1.16362
1.14864
1.13812
1.1283
1.11583
1.10204
1.09012
1.08218
1.07474
1.06631
1.05776
1.04998
1.04316
1.03666
1.02887
1.01893
1.01483
1.01601
1.01842
1.02088
1.02704
1.03993
1.04323
1.04251
1.04098
1.03801
1.0341
1.03136
1.03127
1.03261
1.03883
1.04196
1.04134
1.04091
1.04069
1.03952
1.03859
1.0384
1.03926
1.03919
1.03665
1.03583
1.03714
1.03933
1.04166
1.0454
1.05187
1.06259
1.07021
1.07138
1.07188
1.0714
1.06309
1.04018
1.12314
1.33651
1.4679
1.53411
1.5404
1.54235
1.55041
1.5843
1.6632
1.77362
1.87297
1.93829
1.96737
1.95819
1.93914
1.89809
1.84754
1.80189
1.76815
1.7387
1.7098
1.67826
1.64238
1.60656
1.57557
1.54842
1.52211
1.4929
1.45958
1.42675
1.40042
1.37865
1.35834
1.33756
1.3151
1.29144
1.26919
1.25225
1.2367
1.22018
1.20313
1.1854
1.16799
1.15261
1.14036
1.12888
1.11549
1.10052
1.0878
1.07917
1.07125
1.06283
1.05471
1.04752
1.04082
1.03278
1.02344
1.01427
1.00683
1.00246
1.0007
0.997599
0.997878
1.00378
1.01489
1.02495
1.03329
1.03513
1.03457
1.03384
1.03382
1.03537
1.04215
1.04654
1.04714
1.04688
1.0451
1.04229
1.04035
1.03919
1.03537
1.02924
1.02669
1.02768
1.03043
1.03438
1.03957
1.04517
1.05218
1.06072
1.0671
1.06859
1.06881
1.06889
1.0676
1.05589
1.00812
1.07969
1.27199
1.44345
1.49265
1.57521
1.69061
1.80831
1.90316
1.95586
1.97627
1.97419
1.96677
1.95274
1.93039
1.90626
1.87433
1.83563
1.79734
1.76003
1.72324
1.68382
1.65056
1.62258
1.59407
1.56704
1.54156
1.51636
1.49069
1.46474
1.43827
1.41075
1.3842
1.3608
1.3403
1.32075
1.30062
1.28002
1.26035
1.24202
1.22404
1.20612
1.18876
1.17318
1.15997
1.14729
1.13261
1.11594
1.10123
1.0906
1.08187
1.07336
1.0649
1.05681
1.04861
1.03869
1.027
1.01586
1.0049
0.997779
0.994089
0.989704
0.986145
0.987366
0.992935
1.00317
1.01602
1.02765
1.03335
1.0349
1.03626
1.04177
1.05175
1.05435
1.0542
1.05315
1.05059
1.04691
1.0426
1.03634
1.02671
1.01993
1.01949
1.02097
1.02355
1.02873
1.03806
1.04836
1.05671
1.06202
1.06461
1.06675
1.06823
1.06843
1.06882
1.06427
1.00012
1.00395
1.05713
1.23228
1.50645
1.72611
1.88232
1.97737
2.02609
2.03931
2.02919
2.00725
1.97404
1.9426
1.91758
1.89407
1.87001
1.84494
1.81331
1.77597
1.73525
1.69227
1.64708
1.60463
1.57021
1.54262
1.51812
1.49446
1.47169
1.44929
1.42491
1.39725
1.3687
1.34352
1.32307
1.30482
1.2854
1.26493
1.24526
1.226
1.20725
1.18996
1.1736
1.15872
1.14616
1.13395
1.11918
1.10186
1.08688
1.07675
1.06891
1.06083
1.05199
1.04398
1.03649
1.02687
1.01479
1.00267
0.994272
0.99051
0.989105
0.986922
0.98237
0.981767
0.983757
0.990081
1.00195
1.01803
1.0291
1.03303
1.03691
1.04669
1.05798
1.05983
1.05963
1.0584
1.05579
1.05126
1.04208
1.02958
1.0189
1.01593
1.01632
1.0176
1.01973
1.02468
1.03824
1.05438
1.06111
1.06269
1.0636
1.06495
1.06743
1.07087
1.0724
1.06839
1.00012
1.00395
1.05713
1.23228
1.50645
1.72611
1.88232
1.97737
2.02609
2.03931
2.02919
2.00725
1.97404
1.9426
1.91758
1.89407
1.87001
1.84494
1.81331
1.77597
1.73525
1.69227
1.64708
1.60463
1.57021
1.54262
1.51812
1.49446
1.47169
1.44929
1.42491
1.39725
1.3687
1.34352
1.32307
1.30482
1.2854
1.26493
1.24526
1.226
1.20725
1.18996
1.1736
1.15872
1.14616
1.13395
1.11918
1.10186
1.08688
1.07675
1.06891
1.06083
1.05199
1.04398
1.03649
1.02687
1.01479
1.00267
0.994272
0.99051
0.989105
0.986922
0.982369
0.981767
0.983757
0.990085
1.00193
1.01793
1.0291
1.03312
1.03696
1.04671
1.058
1.05981
1.05962
1.05838
1.05576
1.05135
1.04279
1.0299
1.01888
1.01587
1.01645
1.01782
1.01993
1.02479
1.03727
1.05535
1.06186
1.06273
1.06346
1.06478
1.06808
1.07205
1.07286
1.06863
1.00812
1.07969
1.27199
1.44345
1.49265
1.57521
1.69061
1.80831
1.90316
1.95586
1.97627
1.97419
1.96677
1.95274
1.93039
1.90626
1.87433
1.83563
1.79734
1.76003
1.72324
1.68382
1.65056
1.62258
1.59407
1.56704
1.54156
1.51636
1.49069
1.46474
1.43827
1.41075
1.3842
1.3608
1.3403
1.32075
1.30062
1.28002
1.26035
1.24202
1.22404
1.20612
1.18876
1.17318
1.15997
1.14729
1.13261
1.11594
1.10123
1.0906
1.08187
1.07336
1.0649
1.05681
1.04861
1.03869
1.027
1.01586
1.0049
0.997779
0.994089
0.989704
0.986145
0.987366
0.992935
1.00317
1.01601
1.02764
1.03335
1.03492
1.03627
1.04179
1.05176
1.05442
1.05427
1.0532
1.05065
1.04702
1.04256
1.03633
1.02676
1.02038
1.02025
1.02178
1.0242
1.02892
1.0379
1.04811
1.05639
1.06175
1.06444
1.06703
1.06862
1.06881
1.06937
1.06493
1.12314
1.33651
1.4679
1.53411
1.5404
1.54235
1.55041
1.5843
1.6632
1.77362
1.87297
1.93829
1.96737
1.95819
1.93914
1.89809
1.84754
1.80189
1.76815
1.7387
1.7098
1.67826
1.64238
1.60656
1.57557
1.54842
1.52211
1.4929
1.45958
1.42675
1.40042
1.37865
1.35834
1.33756
1.3151
1.29144
1.26919
1.25225
1.2367
1.22018
1.20313
1.1854
1.16799
1.15261
1.14036
1.12888
1.11549
1.10052
1.0878
1.07917
1.07125
1.06283
1.05471
1.04752
1.04082
1.03278
1.02344
1.01427
1.00683
1.00246
1.0007
0.997599
0.997878
1.00378
1.01489
1.02495
1.03329
1.03513
1.03457
1.03384
1.03382
1.03538
1.04214
1.04659
1.0472
1.04692
1.04511
1.04227
1.04033
1.03916
1.03535
1.02918
1.02652
1.02749
1.03015
1.03405
1.03923
1.04488
1.05199
1.06029
1.06701
1.06889
1.06911
1.06921
1.0678
1.05578
1.37668
1.51779
1.54974
1.55375
1.55324
1.54988
1.54598
1.54077
1.54105
1.55553
1.61061
1.70738
1.79768
1.84323
1.86357
1.85818
1.8349
1.80343
1.77268
1.741
1.70597
1.67013
1.63543
1.60218
1.57061
1.54336
1.51727
1.4854
1.44775
1.41106
1.38546
1.36787
1.35122
1.3339
1.31204
1.28707
1.26047
1.23967
1.2272
1.21436
1.19892
1.18149
1.16362
1.14864
1.13812
1.1283
1.11583
1.10204
1.09012
1.08218
1.07474
1.06631
1.05776
1.04998
1.04316
1.03666
1.02887
1.01893
1.01483
1.01601
1.01842
1.02088
1.02704
1.03993
1.04323
1.04251
1.04098
1.03801
1.0341
1.03136
1.03127
1.03262
1.03884
1.04196
1.04132
1.04091
1.04069
1.03948
1.03853
1.03833
1.03918
1.0391
1.03643
1.03554
1.03682
1.03899
1.04133
1.0452
1.05168
1.06235
1.07053
1.07181
1.07244
1.07185
1.06313
1.03973
1.54243
1.5652
1.56323
1.55368
1.55091
1.55151
1.55161
1.54741
1.53612
1.51865
1.49945
1.48851
1.51488
1.58815
1.67821
1.77154
1.79677
1.78855
1.77415
1.75089
1.71298
1.66701
1.62378
1.5849
1.55012
1.52084
1.49647
1.47365
1.44905
1.41763
1.3846
1.35776
1.3364
1.32362
1.315
1.29942
1.27468
1.23639
1.21328
1.21109
1.20617
1.19382
1.17267
1.15319
1.14439
1.13682
1.12705
1.11573
1.10607
1.09506
1.08472
1.07562
1.06474
1.0554
1.04973
1.04677
1.04101
1.03463
1.03702
1.03853
1.03826
1.04181
1.05596
1.06016
1.05781
1.05329
1.04784
1.04149
1.03519
1.033
1.03319
1.03541
1.04028
1.04073
1.03921
1.03789
1.03811
1.03929
1.03988
1.04063
1.042
1.04292
1.04289
1.04297
1.04368
1.04469
1.04566
1.04784
1.05485
1.06847
1.07618
1.07702
1.07564
1.06664
1.0439
1.02404
1.57562
1.57461
1.56997
1.56409
1.55942
1.55758
1.55439
1.54636
1.52783
1.49844
1.47047
1.4326
1.39688
1.38566
1.40757
1.47722
1.57944
1.63145
1.68479
1.69357
1.67874
1.6532
1.61821
1.58157
1.54807
1.51558
1.48723
1.4631
1.4357
1.40302
1.37257
1.34978
1.33291
1.31432
1.29441
1.27737
1.25609
1.23005
1.20831
1.1978
1.19085
1.18116
1.16886
1.14881
1.13302
1.12688
1.12075
1.11036
1.10167
1.09788
1.09211
1.08568
1.07743
1.06897
1.06577
1.06286
1.05779
1.06045
1.06468
1.06236
1.06263
1.07269
1.0799
1.07696
1.07134
1.0653
1.0593
1.05277
1.04676
1.04407
1.04382
1.04438
1.045
1.0433
1.0392
1.03806
1.03871
1.04078
1.04289
1.04517
1.04715
1.04744
1.04703
1.04823
1.0501
1.05134
1.05276
1.05638
1.06586
1.07427
1.07524
1.07502
1.06849
1.04546
1.02505
1.02134
1.57631
1.57146
1.56927
1.56817
1.56641
1.5611
1.55028
1.53259
1.50178
1.4675
1.43632
1.39251
1.35826
1.33026
1.30642
1.28067
1.29616
1.35059
1.44422
1.56795
1.60759
1.61435
1.60408
1.58678
1.56204
1.52607
1.48641
1.45121
1.41937
1.38899
1.36765
1.35271
1.33444
1.30948
1.28576
1.26707
1.24877
1.22985
1.20918
1.19575
1.18966
1.18259
1.17219
1.15266
1.13323
1.12865
1.12567
1.11793
1.10664
1.10744
1.10748
1.10438
1.10204
1.09981
1.0979
1.09184
1.08861
1.09249
1.09114
1.08864
1.09349
1.09957
1.09743
1.09245
1.08622
1.07962
1.07298
1.06684
1.06309
1.06204
1.06172
1.06039
1.0558
1.04806
1.042
1.03946
1.03833
1.03832
1.04184
1.0472
1.05051
1.05255
1.05328
1.05483
1.05704
1.05882
1.0618
1.06905
1.0775
1.07949
1.07783
1.06789
1.04395
1.02429
1.02141
1.02098
1.58079
1.57318
1.57124
1.56951
1.56743
1.55713
1.53536
1.50622
1.46352
1.4237
1.39189
1.35184
1.31246
1.28101
1.25759
1.22586
1.19103
1.17928
1.19793
1.27417
1.3888
1.46368
1.52294
1.53929
1.52784
1.50924
1.48203
1.44944
1.41826
1.3869
1.36427
1.3481
1.32963
1.30885
1.28939
1.27104
1.25348
1.23748
1.21913
1.20219
1.19521
1.18946
1.1803
1.16331
1.14384
1.14211
1.14482
1.14122
1.13221
1.13409
1.13518
1.13069
1.12712
1.12628
1.12262
1.1138
1.11231
1.11346
1.11083
1.11192
1.11906
1.11962
1.11536
1.1098
1.10533
1.09966
1.09426
1.09013
1.08714
1.0846
1.08157
1.07661
1.06805
1.05707
1.04832
1.04361
1.04181
1.04179
1.04291
1.04668
1.05271
1.05732
1.06051
1.06339
1.0666
1.07128
1.07885
1.08416
1.08416
1.0788
1.06367
1.03679
1.02172
1.02069
1.02098
1.02087
1.57803
1.57544
1.57273
1.56932
1.56027
1.5378
1.50468
1.46521
1.41456
1.37409
1.33992
1.29424
1.25514
1.23347
1.2136
1.17582
1.13179
1.12184
1.11506
1.1075
1.13048
1.19503
1.30036
1.41858
1.45393
1.47526
1.47232
1.45582
1.43289
1.40075
1.37518
1.35631
1.3371
1.31352
1.29773
1.28485
1.26938
1.25432
1.23729
1.21621
1.20838
1.20572
1.20012
1.18751
1.1713
1.17052
1.17249
1.16905
1.15677
1.15535
1.15419
1.15015
1.14515
1.14328
1.13803
1.13077
1.13131
1.13028
1.12991
1.13406
1.13684
1.13624
1.13207
1.12813
1.12442
1.12113
1.11876
1.11642
1.11374
1.10963
1.10275
1.093
1.08092
1.06728
1.05623
1.05031
1.04761
1.04654
1.04659
1.04944
1.05668
1.06446
1.07048
1.07615
1.08351
1.09181
1.09516
1.09388
1.08396
1.05881
1.02767
1.01766
1.01778
1.01965
1.02083
1.02082
1.57848
1.57633
1.57337
1.56472
1.54084
1.49976
1.45879
1.41418
1.35655
1.3107
1.2797
1.24117
1.19858
1.17532
1.15362
1.11737
1.0906
1.08287
1.07044
1.04481
1.02561
1.03127
1.06288
1.16439
1.28439
1.36676
1.44154
1.44149
1.42476
1.40986
1.39919
1.38189
1.36106
1.33647
1.31821
1.30845
1.2955
1.27944
1.26503
1.24556
1.23001
1.22821
1.22621
1.2171
1.19945
1.19708
1.19673
1.19307
1.18145
1.17369
1.17042
1.16655
1.16213
1.15782
1.15102
1.14907
1.14834
1.14764
1.15126
1.15251
1.15213
1.15069
1.14783
1.14451
1.14148
1.14081
1.13981
1.13788
1.13571
1.13199
1.12465
1.11393
1.09863
1.0809
1.06693
1.058
1.05325
1.05217
1.05278
1.05685
1.06561
1.07667
1.08798
1.09878
1.10618
1.1077
1.10354
1.08706
1.05301
1.02089
1.01403
1.01422
1.01632
1.01948
1.02039
1.02035
1.57536
1.57205
1.56395
1.54132
1.50013
1.44793
1.40208
1.34643
1.28412
1.25131
1.22544
1.17696
1.12188
1.11193
1.1011
1.07549
1.05397
1.04756
1.0349
1.01509
1.00978
1.0109
1.01501
1.02687
1.0729
1.15348
1.27744
1.38154
1.40032
1.41371
1.40957
1.40246
1.39233
1.38039
1.36294
1.34427
1.32644
1.30639
1.29196
1.27715
1.25735
1.24929
1.2479
1.24191
1.22632
1.21692
1.2128
1.20766
1.19871
1.19025
1.18483
1.18044
1.17644
1.17023
1.16515
1.16404
1.16256
1.16578
1.16877
1.16778
1.16574
1.16573
1.16409
1.16054
1.15872
1.15918
1.15886
1.15683
1.15364
1.14923
1.14224
1.13106
1.11337
1.09491
1.08077
1.07102
1.06575
1.06479
1.06653
1.07348
1.08529
1.09967
1.11252
1.11816
1.11798
1.11092
1.08798
1.0454
1.01727
1.01344
1.01335
1.01368
1.01562
1.01884
1.01995
1.01993
1.56593
1.55807
1.53649
1.49947
1.44454
1.38146
1.32931
1.27326
1.21894
1.18864
1.15647
1.10102
1.06597
1.06058
1.04907
1.02404
1.01004
1.01
1.00477
0.997414
0.997574
1.00047
1.00697
1.00913
1.01023
1.01978
1.06619
1.18
1.28059
1.36014
1.39449
1.40324
1.39954
1.39391
1.38591
1.37299
1.35657
1.33499
1.32147
1.3115
1.2942
1.27586
1.26764
1.25977
1.245
1.23275
1.22531
1.21727
1.20899
1.20204
1.1968
1.19228
1.1878
1.18142
1.18101
1.18057
1.18211
1.18886
1.18968
1.1862
1.18288
1.18299
1.1807
1.17608
1.17528
1.17598
1.17654
1.17518
1.17146
1.16558
1.15738
1.14396
1.12581
1.10764
1.09303
1.08477
1.08316
1.08579
1.09389
1.1033
1.11278
1.12029
1.12238
1.12163
1.11416
1.08519
1.03702
1.01469
1.01297
1.01296
1.01302
1.01338
1.01491
1.018
1.01955
1.01957
1.55216
1.53325
1.49303
1.44023
1.36764
1.3032
1.25574
1.19425
1.14111
1.12341
1.09905
1.04834
1.03127
1.03149
1.02174
1.00761
1.00414
1.00452
1.00115
0.996853
0.997315
1.00139
1.00546
1.00774
1.0114
1.01791
1.02111
1.03766
1.09169
1.17485
1.27606
1.35935
1.38089
1.3864
1.38446
1.37817
1.36598
1.3516
1.3435
1.33615
1.32187
1.3028
1.28888
1.27781
1.26141
1.24797
1.24069
1.23204
1.22372
1.21923
1.21652
1.21386
1.21071
1.21203
1.21747
1.22259
1.23589
1.24793
1.24822
1.24167
1.23622
1.23394
1.22869
1.22081
1.21677
1.21503
1.21331
1.20936
1.20108
1.18967
1.17724
1.16254
1.14607
1.12978
1.11771
1.11402
1.11705
1.12525
1.12739
1.12587
1.12304
1.12168
1.11955
1.10794
1.07335
1.03003
1.01434
1.01294
1.01291
1.01291
1.01295
1.0132
1.01438
1.01726
1.01922
1.0193
1.53286
1.4903
1.42865
1.35505
1.27075
1.21575
1.16756
1.10567
1.07117
1.05686
1.03433
1.00922
1.00852
1.01325
1.00885
1.00566
1.0068
1.01272
1.01875
1.0198
1.02069
1.0243
1.02651
1.02558
1.02541
1.02741
1.03147
1.03379
1.03678
1.05002
1.097
1.18335
1.27246
1.31706
1.3532
1.36371
1.35924
1.35232
1.34741
1.34066
1.32939
1.31564
1.30722
1.30215
1.29527
1.28786
1.28848
1.28782
1.28737
1.29237
1.30198
1.30653
1.31389
1.3304
1.34335
1.35391
1.37133
1.37788
1.3739
1.3628
1.35473
1.34782
1.33837
1.32744
1.31815
1.31072
1.30317
1.29215
1.27524
1.25521
1.23621
1.21811
1.19997
1.18325
1.17064
1.1631
1.15829
1.14852
1.13501
1.12581
1.1201
1.11123
1.08917
1.05116
1.02348
1.01731
1.01551
1.01377
1.0129
1.01284
1.01286
1.01307
1.01407
1.01673
1.01894
1.01909
1.49397
1.41305
1.33184
1.22621
1.15504
1.13573
1.10198
1.05551
1.04773
1.04338
1.03103
1.02214
1.02597
1.03251
1.03204
1.03132
1.03368
1.04016
1.04469
1.04697
1.04815
1.04874
1.04848
1.04663
1.04542
1.04545
1.04824
1.0477
1.04569
1.04261
1.04324
1.05403
1.08958
1.15309
1.22146
1.28083
1.32658
1.33485
1.34039
1.34672
1.35821
1.36809
1.37746
1.38783
1.40393
1.41537
1.42133
1.42403
1.42647
1.43247
1.43248
1.43155
1.43974
1.44351
1.44345
1.44637
1.44874
1.44772
1.44169
1.43167
1.42479
1.41764
1.40768
1.39617
1.38522
1.3758
1.36716
1.35699
1.34363
1.32783
1.31218
1.29866
1.28646
1.27368
1.2571
1.2305
1.19301
1.15389
1.13054
1.1148
1.09302
1.06012
1.02898
1.01848
1.01779
1.01771
1.017
1.01457
1.01304
1.01292
1.01294
1.01315
1.01407
1.01645
1.0187
1.01891
1.39642
1.23757
1.10199
0.978357
0.983147
1.00209
0.998032
0.995537
1.01078
1.03505
1.04572
1.05177
1.06469
1.07679
1.07616
1.07005
1.06824
1.07014
1.0711
1.07231
1.07215
1.0707
1.06703
1.06052
1.057
1.05634
1.05749
1.05731
1.05507
1.05054
1.04582
1.0425
1.04137
1.04717
1.06906
1.12402
1.20423
1.28682
1.34971
1.40966
1.4551
1.48952
1.51919
1.54913
1.57058
1.5847
1.59431
1.59599
1.59827
1.59615