/*--------------------------------*- C++ -*----------------------------------*\
  =========                 |
  \\      /  F ield         | OpenFOAM: The Open Source CFD Toolbox
   \\    /   O peration     | Website:  https://openfoam.org
    \\  /    A nd           | Version:  7
     \\/     M anipulation  |
\*---------------------------------------------------------------------------*/
FoamFile
{
    version     2.0;
    format      ascii;
    class       volVectorField;
    location    "0.5";
    object      U;
}
// * * * * * * * * * * * * * * * * * * * * * * * * * * * * * * * * * * * * * //

dimensions      [0 1 -1 0 0 0 0];

internalField   nonuniform List<vector> 
4608
(
(3 1.46395e-16 0)
(3 3.12246e-17 0)
(3 1.79168e-16 0)
(3 4.65404e-16 0)
(3 4.54897e-16 0)
(3 3.28364e-16 0)
(3 -3.28259e-18 0)
(3 -3.20645e-17 0)
(3 -1.49779e-16 0)
(3 -1.26283e-16 0)
(3 -8.52293e-16 0)
(3 -6.40084e-16 0)
(3 -5.14032e-17 0)
(3 5.18153e-16 0)
(3 6.62801e-16 0)
(3 1.21682e-15 0)
(3 1.26038e-15 0)
(3 8.52637e-16 0)
(3 3.61598e-16 0)
(3 2.39726e-16 0)
(3 -1.24756e-17 0)
(3 -1.59536e-15 0)
(3 -2.00943e-15 0)
(3 -1.77101e-15 0)
(3 -2.6653e-16 0)
(3 2.52433e-16 0)
(3 4.43176e-16 0)
(3 4.95868e-16 0)
(3 -4.35951e-17 0)
(3 -5.11841e-16 0)
(3 -7.13168e-16 0)
(3 -5.82519e-16 0)
(3 -5.0678e-16 0)
(3 -5.31259e-16 0)
(3 -1.12628e-15 0)
(3 -1.29622e-15 0)
(3 -6.19806e-16 0)
(3 1.3399e-16 0)
(3 1.50088e-16 0)
(3 7.04799e-17 0)
(3 5.8712e-16 0)
(3 3.65471e-16 0)
(3 -1.7313e-16 0)
(3 7.29374e-16 0)
(3 9.31459e-16 0)
(3 -9.5753e-16 0)
(3 -1.64006e-15 0)
(3 -2.31839e-15 0)
(3 -1.95935e-16 0)
(3 1.95739e-16 0)
(3 -5.8471e-17 0)
(3 -3.33055e-16 0)
(3 -1.65135e-16 0)
(3 -6.5561e-17 0)
(3 1.4507e-17 0)
(3 1.7438e-16 0)
(3 -1.51592e-16 0)
(3 -1.48204e-15 0)
(3 -1.77914e-15 0)
(3 -8.94831e-16 0)
(3 8.33796e-17 0)
(3 -2.96851e-16 0)
(3 -1.17732e-15 0)
(3 -1.49107e-15 0)
(3 -1.30341e-15 0)
(3 -1.59e-16 0)
(3 6.94769e-16 0)
(3 6.74929e-16 0)
(3 8.62286e-16 0)
(3 -1.03502e-15 0)
(3 2.58097e-17 0)
(3 1.34462e-15 0)
(3 -3.67058e-17 0)
(3 -1.33149e-16 0)
(3 6.61642e-17 0)
(3 1.28801e-16 0)
(3 2.76118e-16 0)
(3 7.30011e-16 0)
(3 5.12481e-16 0)
(3 5.68483e-16 0)
(3 -2.28542e-16 0)
(3 -8.66843e-16 0)
(3 -2.07075e-15 0)
(3 -7.98431e-16 0)
(3 -4.64812e-16 0)
(3 -1.11019e-15 0)
(3 -2.63122e-15 0)
(3 -2.50233e-15 0)
(3 -2.58332e-15 0)
(3 -9.57044e-16 0)
(3 1.26523e-15 0)
(3 1.63212e-15 0)
(3 8.32519e-16 0)
(3 -3.9494e-16 0)
(3 -1.12117e-16 0)
(3 3.51872e-15 0)
(3 5.78237e-17 0)
(3 5.91781e-16 0)
(3 7.42458e-16 0)
(3 2.97283e-16 0)
(3 -3.06988e-16 0)
(3 -4.9535e-16 0)
(3 -7.12488e-16 0)
(3 -1.17952e-15 0)
(3 -1.32123e-15 0)
(3 -9.93906e-16 0)
(3 -8.8432e-16 0)
(3 -5.19472e-16 0)
(3 -1.5352e-16 0)
(3 -5.84115e-16 0)
(3 -8.63553e-16 0)
(3 -1.58264e-15 0)
(3 -2.49344e-15 0)
(3 -1.6916e-15 0)
(3 3.278e-17 0)
(3 6.72799e-16 0)
(3 6.63452e-16 0)
(3 5.97779e-16 0)
(3 4.97283e-16 0)
(3 6.29789e-16 0)
(3 1.59312e-17 0)
(3 4.02893e-16 0)
(3 5.94633e-16 0)
(3 7.8575e-16 0)
(3 6.96797e-16 0)
(3 -2.49566e-16 0)
(3 -2.8928e-16 0)
(3 -9.24869e-16 0)
(3 -9.82088e-16 0)
(3 -1.36571e-15 0)
(3 -1.83708e-15 0)
(3 -2.77956e-15 0)
(3 -2.60467e-15 0)
(3 -7.78164e-16 0)
(3 6.95227e-16 0)
(3 3.75969e-16 0)
(3 1.17284e-16 0)
(3 -4.04506e-16 0)
(3 3.66172e-16 0)
(3 1.14434e-15 0)
(3 1.48262e-15 0)
(3 2.15078e-15 0)
(3 2.00597e-15 0)
(3 1.11349e-15 0)
(3 -1.10406e-16 0)
(3 -4.32316e-16 0)
(3 -5.06218e-16 0)
(3 2.67549e-16 0)
(3 6.2302e-16 0)
(3 2.43801e-16 0)
(3 -8.26007e-17 0)
(3 -2.43209e-16 0)
(3 -5.64526e-16 0)
(3 -8.047e-16 0)
(3 -1.26382e-15 0)
(3 -2.86746e-15 0)
(3 -3.59206e-15 0)
(3 -4.13367e-15 0)
(3 -2.48471e-15 0)
(3 -7.39349e-16 0)
(3 -2.36472e-16 0)
(3 -4.75722e-16 0)
(3 -4.11513e-16 0)
(3 -6.06172e-18 0)
(3 4.95477e-16 0)
(3 1.4107e-15 0)
(3 1.60117e-15 0)
(3 2.35154e-15 0)
(3 2.98632e-16 0)
(3 1.01419e-18 0)
(3 -4.7028e-16 0)
(3 -8.93509e-16 0)
(3 -7.35636e-16 0)
(3 -4.65778e-16 0)
(3 -7.36815e-16 0)
(3 -4.83015e-16 0)
(3 -5.22277e-16 0)
(3 5.51783e-17 0)
(3 6.49844e-16 0)
(3 -5.15171e-16 0)
(3 -2.38834e-15 0)
(3 -2.58635e-15 0)
(3 -2.26117e-15 0)
(3 -1.29442e-15 0)
(3 -5.65754e-16 0)
(3 -8.38582e-16 0)
(3 -1.48206e-15 0)
(3 -1.50258e-15 0)
(3 -6.44284e-16 0)
(3 -8.50781e-16 0)
(3 -7.39961e-16 0)
(3 2.32576e-16 0)
(3 -1.28647e-16 0)
(3 -1.02747e-17 0)
(3 1.15803e-16 0)
(3 -8.43157e-17 0)
(3 -1.80386e-16 0)
(3 1.73276e-16 0)
(3 4.5844e-16 0)
(3 3.50393e-16 0)
(3 9.02637e-16 0)
(3 1.32774e-15 0)
(3 8.26394e-16 0)
(3 1.23885e-16 0)
(3 2.15931e-17 0)
(3 1.47166e-15 0)
(3 1.7049e-15 0)
(3 1.30554e-15 0)
(3 -2.48428e-16 0)
(3 -1.2207e-15 0)
(3 -1.25563e-15 0)
(3 -1.71208e-15 0)
(3 -2.00579e-15 0)
(3 -1.9917e-15 0)
(3 -1.20027e-15 0)
(3 -9.76244e-16 0)
(3 -1.91475e-16 0)
(3 -2.95794e-16 0)
(3 -3.4551e-16 0)
(3 -5.65828e-17 0)
(3 -1.06762e-16 0)
(3 -7.59564e-17 0)
(3 2.08305e-16 0)
(3 7.01241e-16 0)
(3 6.73603e-16 0)
(3 5.14812e-16 0)
(3 4.64833e-16 0)
(3 2.11971e-16 0)
(3 6.47355e-16 0)
(3 9.05478e-16 0)
(3 1.85257e-15 0)
(3 5.19853e-16 0)
(3 -9.40333e-16 0)
(3 -1.65076e-15 0)
(3 -8.79427e-16 0)
(3 -4.61204e-16 0)
(3 -1.60821e-15 0)
(3 -1.40719e-15 0)
(3 -1.34203e-15 0)
(3 -2.62112e-15 0)
(3 1.60627e-17 0)
(3 1.47359e-16 0)
(3 2.87342e-16 0)
(3 3.59685e-17 0)
(3 -1.42677e-16 0)
(3 -3.52151e-16 0)
(3 -7.14846e-17 0)
(3 4.21277e-16 0)
(3 2.04136e-16 0)
(3 2.31948e-16 0)
(3 5.02336e-16 0)
(3 5.25032e-17 0)
(3 -5.26183e-16 0)
(3 -1.53357e-15 0)
(3 -2.22454e-15 0)
(3 -1.89024e-15 0)
(3 -2.21054e-15 0)
(3 -2.20463e-15 0)
(3 -7.46435e-16 0)
(3 -4.34838e-16 0)
(3 -6.81175e-16 0)
(3 -1.14637e-15 0)
(3 -1.58542e-15 0)
(3 -2.58052e-15 0)
(3 -1.32374e-17 0)
(3 2.7988e-16 0)
(3 6.40854e-16 0)
(3 3.09261e-16 0)
(3 -6.16469e-17 0)
(3 -3.01491e-16 0)
(3 -3.22922e-16 0)
(3 -4.22746e-16 0)
(3 -2.55536e-16 0)
(3 3.04078e-16 0)
(3 1.08474e-15 0)
(3 1.08172e-15 0)
(3 1.39379e-16 0)
(3 1.85179e-16 0)
(3 -3.21311e-16 0)
(3 -1.21431e-15 0)
(3 1.13192e-16 0)
(3 8.20434e-16 0)
(3 -1.37582e-16 0)
(3 -4.05342e-16 0)
(3 -1.17437e-15 0)
(3 -1.11143e-15 0)
(3 -1.2179e-15 0)
(3 -7.79686e-16 0)
(3 -4.09743e-17 0)
(3 -1.69839e-16 0)
(3 -1.94072e-16 0)
(3 5.62916e-17 0)
(3 -1.41759e-16 0)
(3 -1.23166e-16 0)
(3 -2.40814e-16 0)
(3 -3.42445e-17 0)
(3 2.52559e-16 0)
(3 3.73316e-16 0)
(3 8.35501e-16 0)
(3 1.2797e-15 0)
(3 1.44505e-15 0)
(3 1.20184e-15 0)
(3 1.07257e-15 0)
(3 2.66365e-16 0)
(3 2.24435e-16 0)
(3 1.98914e-17 0)
(3 -3.97767e-16 0)
(3 -8.00136e-16 0)
(3 -4.92535e-16 0)
(3 -2.2022e-17 0)
(3 9.43589e-17 0)
(3 4.69578e-16 0)
(3 -7.10389e-17 0)
(3 -2.89614e-16 0)
(3 -3.46634e-16 0)
(3 2.64855e-16 0)
(3 3.88106e-16 0)
(3 5.65137e-16 0)
(3 8.1358e-16 0)
(3 8.30511e-16 0)
(3 1.54248e-15 0)
(3 1.67331e-15 0)
(3 1.38052e-15 0)
(3 1.19264e-15 0)
(3 1.31231e-15 0)
(3 3.05082e-16 0)
(3 -3.92402e-16 0)
(3 -1.52996e-16 0)
(3 -1.06688e-15 0)
(3 -8.96132e-16 0)
(3 -3.99968e-16 0)
(3 2.25969e-16 0)
(3 2.84699e-16 0)
(3 -3.64648e-16 0)
(3 -4.71556e-17 0)
(3 5.28999e-17 0)
(3 4.33911e-17 0)
(3 1.25269e-16 0)
(3 -2.1406e-16 0)
(3 -3.98749e-16 0)
(3 4.0624e-16 0)
(3 5.34541e-16 0)
(3 8.43586e-16 0)
(3 4.75701e-16 0)
(3 2.90507e-16 0)
(3 7.478e-16 0)
(3 1.05309e-15 0)
(3 1.71512e-15 0)
(3 1.28474e-15 0)
(3 1.07164e-15 0)
(3 4.26808e-16 0)
(3 3.98958e-16 0)
(3 9.67202e-16 0)
(3 8.00581e-16 0)
(3 7.95691e-16 0)
(3 9.89175e-16 0)
(3 9.42401e-16 0)
(3 1.77506e-18 0)
(3 -8.99807e-16 0)
(3 -2.59134e-16 0)
(3 2.29891e-16 0)
(3 1.515e-16 0)
(3 5.72049e-17 0)
(3 -2.31818e-16 0)
(3 4.74563e-17 0)
(3 6.41144e-16 0)
(3 6.68987e-16 0)
(3 4.38539e-16 0)
(3 -9.32478e-17 0)
(3 -6.75624e-16 0)
(3 -6.18134e-17 0)
(3 4.21537e-16 0)
(3 7.41971e-16 0)
(3 9.16768e-16 0)
(3 1.29123e-15 0)
(3 7.80353e-16 0)
(3 -5.2633e-16 0)
(3 -1.51845e-15 0)
(3 -2.01903e-15 0)
(3 -4.34767e-16 0)
(3 1.13134e-15 0)
(3 1.28774e-15 0)
(3 1.45384e-16 0)
(3 -1.21989e-15 0)
(3 6.49621e-17 0)
(3 -2.55318e-16 0)
(3 1.65536e-16 0)
(3 4.10113e-16 0)
(3 2.86579e-16 0)
(3 7.11166e-16 0)
(3 8.9202e-16 0)
(3 6.93085e-16 0)
(3 1.26387e-16 0)
(3 -1.36292e-15 0)
(3 -2.39507e-15 0)
(3 -2.46216e-15 0)
(3 -7.76567e-16 0)
(3 -1.34039e-16 0)
(3 4.82572e-18 0)
(3 -6.38127e-16 0)
(3 -2.00822e-15 0)
(3 -3.11897e-15 0)
(3 -3.02575e-15 0)
(3 1.51403e-16 0)
(3 1.88729e-16 0)
(3 2.27896e-16 0)
(3 1.60277e-16 0)
(3 -5.35145e-16 0)
(3 -2.90895e-16 0)
(3 5.96843e-17 0)
(3 1.73184e-16 0)
(3 2.19871e-16 0)
(3 -5.65173e-17 0)
(3 6.74949e-17 0)
(3 -9.20673e-17 0)
(3 -4.54294e-16 0)
(3 -9.83488e-16 0)
(3 -1.34932e-15 0)
(3 -2.36632e-15 0)
(3 -2.60548e-15 0)
(3 -2.787e-15 0)
(3 -2.31111e-15 0)
(3 -1.55189e-15 0)
(3 -1.53688e-15 0)
(3 -1.70687e-15 0)
(3 -2.52804e-15 0)
(3 -3.32409e-15 0)
(3 -1.13823e-15 0)
(3 6.62393e-16 0)
(3 1.15805e-15 0)
(3 1.05434e-15 0)
(3 9.55971e-16 0)
(3 -1.28539e-16 0)
(3 4.84598e-17 0)
(3 3.19212e-16 0)
(3 5.27421e-16 0)
(3 4.06294e-16 0)
(3 -1.50187e-16 0)
(3 -7.63327e-16 0)
(3 -8.54183e-16 0)
(3 -2.1773e-16 0)
(3 8.07447e-16 0)
(3 1.1588e-15 0)
(3 -8.93107e-18 0)
(3 -1.39605e-15 0)
(3 -1.70733e-15 0)
(3 -3.38043e-16 0)
(3 7.64079e-17 0)
(3 4.53267e-16 0)
(3 6.95369e-17 0)
(3 1.82988e-17 0)
(3 -6.08138e-17 0)
(3 8.35448e-16 0)
(3 1.30226e-15 0)
(3 1.16554e-15 0)
(3 1.30308e-15 0)
(3 1.13767e-16 0)
(3 2.19259e-16 0)
(3 1.43752e-16 0)
(3 2.29406e-16 0)
(3 3.11944e-16 0)
(3 2.23634e-16 0)
(3 1.85729e-16 0)
(3 3.25691e-16 0)
(3 9.51986e-16 0)
(3 2.22144e-15 0)
(3 2.85256e-15 0)
(3 2.42135e-15 0)
(3 1.55067e-15 0)
(3 1.23801e-15 0)
(3 1.06062e-15 0)
(3 1.35806e-15 0)
(3 1.7342e-15 0)
(3 2.52706e-15 0)
(3 3.28864e-15 0)
(3 2.83363e-15 0)
(3 1.94741e-15 0)
(3 1.10487e-15 0)
(3 2.66495e-16 0)
(3 3.95702e-16 0)
(3 -2.09356e-16 0)
(3 -2.59724e-16 0)
(3 -4.84911e-16 0)
(3 -4.26068e-16 0)
(3 -3.06956e-16 0)
(3 4.41302e-18 0)
(3 5.50577e-16 0)
(3 9.61875e-16 0)
(3 7.51506e-16 0)
(3 7.5591e-16 0)
(3 3.82847e-16 0)
(3 7.92903e-16 0)
(3 1.36101e-15 0)
(3 1.06816e-15 0)
(3 -5.82523e-17 0)
(3 4.3588e-16 0)
(3 9.00755e-16 0)
(3 2.20821e-15 0)
(3 2.82617e-15 0)
(3 2.27186e-15 0)
(3 2.12037e-15 0)
(3 1.38307e-16 0)
(3 -4.36923e-16 0)
(3 -2.30224e-16 0)
(3 -1.6367e-16 0)
(3 -3.35475e-16 0)
(3 -4.20106e-16 0)
(3 -3.10044e-16 0)
(3 -1.15342e-16 0)
(3 1.06055e-16 0)
(3 4.07157e-16 0)
(3 2.02973e-16 0)
(3 3.79037e-16 0)
(3 -1.31285e-16 0)
(3 -5.00401e-16 0)
(3 3.08781e-17 0)
(3 2.94461e-16 0)
(3 -9.41744e-17 0)
(3 -5.50765e-16 0)
(3 -6.52185e-16 0)
(3 -3.70228e-16 0)
(3 4.38577e-16 0)
(3 9.87156e-16 0)
(3 9.04216e-17 0)
(3 -3.14564e-17 0)
(3 1.95165e-16 0)
(3 5.54091e-16 0)
(3 8.10151e-16 0)
(3 3.49115e-16 0)
(3 3.50411e-16 0)
(3 -4.41235e-17 0)
(3 -1.92808e-16 0)
(3 -1.25291e-16 0)
(3 1.35954e-16 0)
(3 -1.57115e-17 0)
(3 -3.21026e-16 0)
(3 -3.40942e-16 0)
(3 -4.77326e-16 0)
(3 -6.32172e-16 0)
(3 -7.60183e-16 0)
(3 -8.93308e-16 0)
(3 -5.25752e-16 0)
(3 -2.79622e-16 0)
(3 -1.66478e-16 0)
(3 6.98148e-16 0)
(3 9.45704e-16 0)
(3 -4.62424e-16 0)
(3 -7.1319e-16 0)
(3 -6.5852e-16 0)
(3 -3.17624e-16 0)
(3 3.15913e-16 0)
(3 1.00874e-15 0)
(3 1.50756e-16 0)
(3 -4.90019e-17 0)
(3 -4.72905e-18 0)
(3 2.29529e-16 0)
(3 3.15351e-16 0)
(3 -3.42846e-16 0)
(3 -6.27551e-16 0)
(3 6.88092e-17 0)
(3 -8.57864e-16 0)
(3 -1.18281e-15 0)
(3 -1.30081e-15 0)
(3 -1.69119e-15 0)
(3 -2.98273e-15 0)
(3 -2.86399e-15 0)
(3 -1.55169e-15 0)
(3 1.13418e-15 0)
(3 1.79318e-15 0)
(3 3.91414e-16 0)
(3 -2.52768e-15 0)
(3 -2.7368e-15 0)
(3 -2.11018e-15 0)
(3 -1.4441e-15 0)
(3 -6.71824e-16 0)
(3 -3.13531e-16 0)
(3 -1.26244e-16 0)
(3 -2.12098e-16 0)
(3 -7.41489e-17 0)
(3 -2.40145e-16 0)
(3 -1.28267e-16 0)
(3 -5.07442e-16 0)
(3 -7.3746e-16 0)
(3 -7.19565e-16 0)
(3 -3.13304e-16 0)
(3 -4.28243e-16 0)
(3 -6.59451e-16 0)
(3 -1.11195e-15 0)
(3 -1.94427e-15 0)
(3 -2.33655e-15 0)
(3 -2.50069e-15 0)
(3 -1.25029e-15 0)
(3 5.85365e-17 0)
(3 -4.73077e-16 0)
(3 -1.91164e-15 0)
(3 -2.2965e-15 0)
(3 -1.11425e-15 0)
(3 -2.76717e-17 0)
(3 8.05016e-16 0)
(3 6.36033e-16 0)
(3 1.22589e-16 0)
(3 5.7487e-16 0)
(3 -1.35019e-16 0)
(3 -7.46843e-16 0)
(3 -1.08931e-15 0)
(3 -1.20675e-15 0)
(3 -1.06527e-15 0)
(3 -1.03611e-15 0)
(3 -8.44059e-16 0)
(3 -5.00749e-16 0)
(3 -1.94196e-16 0)
(3 -4.33586e-16 0)
(3 -1.86988e-16 0)
(3 7.9908e-17 0)
(3 1.13262e-16 0)
(3 2.49382e-16 0)
(3 1.09261e-15 0)
(3 1.41685e-15 0)
(3 8.92648e-16 0)
(3 1.38357e-16 0)
(3 4.56126e-16 0)
(3 1.71302e-15 0)
(3 2.11009e-15 0)
(3 1.84199e-15 0)
(3 6.29507e-17 0)
(3 2.01543e-16 0)
(3 3.22641e-17 0)
(3 -4.0021e-17 0)
(3 -5.97412e-16 0)
(3 -6.69103e-16 0)
(3 -8.37212e-16 0)
(3 -1.01217e-15 0)
(3 -9.57526e-16 0)
(3 -7.3534e-16 0)
(3 -4.4371e-19 0)
(3 3.49061e-16 0)
(3 4.4382e-16 0)
(3 7.50979e-16 0)
(3 6.52707e-16 0)
(3 2.99372e-16 0)
(3 6.46966e-16 0)
(3 1.56085e-15 0)
(3 1.37944e-15 0)
(3 6.24394e-16 0)
(3 7.07393e-16 0)
(3 6.72362e-16 0)
(3 3.61146e-16 0)
(3 1.6174e-15 0)
(3 -4.55662e-17 0)
(3 -3.20571e-16 0)
(3 -2.59564e-16 0)
(3 -5.26801e-16 0)
(3 -7.07338e-16 0)
(3 -4.52909e-16 0)
(3 3.09823e-16 0)
(3 3.45271e-16 0)
(3 5.04512e-16 0)
(3 4.53504e-16 0)
(3 4.26268e-16 0)
(3 2.87529e-16 0)
(3 1.25225e-16 0)
(3 -3.83109e-16 0)
(3 -7.07061e-17 0)
(3 3.62096e-16 0)
(3 1.83798e-16 0)
(3 1.96996e-16 0)
(3 1.87039e-16 0)
(3 6.16026e-16 0)
(3 -3.25074e-16 0)
(3 -5.43336e-16 0)
(3 -1.27991e-16 0)
(3 1.85213e-15 0)
(3 1.09316e-16 0)
(3 3.12481e-17 0)
(3 7.56312e-17 0)
(3 -1.26871e-16 0)
(3 -7.62514e-17 0)
(3 3.92382e-17 0)
(3 2.61034e-16 0)
(3 1.21524e-15 0)
(3 1.02392e-15 0)
(3 7.04858e-16 0)
(3 2.54134e-16 0)
(3 -9.56343e-17 0)
(3 -3.27133e-16 0)
(3 -1.01672e-16 0)
(3 8.3175e-16 0)
(3 5.7194e-16 0)
(3 9.11142e-16 0)
(3 6.89499e-16 0)
(3 1.02854e-15 0)
(3 7.22054e-16 0)
(3 -9.46421e-16 0)
(3 -1.55577e-15 0)
(3 -2.86737e-16 0)
(3 2.4662e-16 0)
(3 4.13928e-17 0)
(3 2.41326e-16 0)
(3 6.98866e-16 0)
(3 1.46613e-15 0)
(3 1.63744e-15 0)
(3 1.56507e-15 0)
(3 6.77844e-16 0)
(3 6.32812e-16 0)
(3 -5.18526e-16 0)
(3 -1.23392e-15 0)
(3 -1.13902e-15 0)
(3 -8.31998e-16 0)
(3 -6.43315e-16 0)
(3 -1.19904e-16 0)
(3 9.74223e-16 0)
(3 1.24722e-15 0)
(3 2.86875e-15 0)
(3 3.51828e-15 0)
(3 3.25993e-15 0)
(3 1.91525e-15 0)
(3 2.61612e-16 0)
(3 -8.36166e-16 0)
(3 -1.66952e-15 0)
(3 -1.06914e-17 0)
(3 -1.45149e-16 0)
(3 -2.2926e-17 0)
(3 7.91135e-16 0)
(3 1.69777e-15 0)
(3 2.09472e-15 0)
(3 2.03512e-15 0)
(3 1.26946e-15 0)
(3 -9.28245e-16 0)
(3 -1.91993e-15 0)
(3 -2.45567e-15 0)
(3 -2.43109e-15 0)
(3 -1.93521e-15 0)
(3 -5.18984e-16 0)
(3 1.00922e-15 0)
(3 1.6106e-15 0)
(3 2.45111e-15 0)
(3 2.95023e-15 0)
(3 2.48249e-15 0)
(3 2.324e-15 0)
(3 2.15347e-15 0)
(3 8.35364e-16 0)
(3 -1.64755e-15 0)
(3 -2.68209e-15 0)
(3 1.93739e-15 0)
(3 -3.8571e-17 0)
(3 3.37099e-17 0)
(3 3.99482e-16 0)
(3 7.66032e-16 0)
(3 1.11702e-15 0)
(3 6.78768e-16 0)
(3 3.78244e-16 0)
(3 -6.13935e-16 0)
(3 -1.03216e-15 0)
(3 -1.19664e-15 0)
(3 -1.29012e-15 0)
(3 -1.28491e-15 0)
(3 5.24078e-16 0)
(3 1.38671e-15 0)
(3 1.30414e-15 0)
(3 8.95987e-16 0)
(3 7.77896e-16 0)
(3 5.08268e-16 0)
(3 5.31456e-16 0)
(3 6.76557e-16 0)
(3 4.67097e-16 0)
(3 -8.84421e-16 0)
(3 -1.04941e-15 0)
(3 7.01598e-16 0)
(2.93337 0.0110107 0)
(2.8499 0.0566708 0)
(2.74661 0.181543 0)
(2.68901 0.212 0)
(2.56694 0.358078 0)
(2.4995 0.449323 0)
(2.43033 0.538402 0)
(2.34927 0.626625 0)
(2.31317 0.726875 0)
(2.25822 0.798857 0)
(2.24817 0.8538 0)
(2.27996 0.886725 0)
(2.32337 0.892962 0)
(2.33856 0.88342 0)
(2.34853 0.878384 0)
(2.3493 0.871924 0)
(2.34609 0.858612 0)
(2.34528 0.8482 0)
(2.34547 0.845914 0)
(2.34176 0.846138 0)
(2.33883 0.847548 0)
(2.33633 0.8479 0)
(2.33651 0.84906 0)
(2.33828 0.849548 0)
(2.99894 0.00101798 0)
(2.98991 0.0114179 0)
(2.95751 0.0537072 0)
(2.90689 0.13035 0)
(2.80113 0.274688 0)
(2.67926 0.463806 0)
(2.54189 0.678887 0)
(2.36826 0.911095 0)
(2.23027 1.06387 0)
(2.17719 1.1 0)
(2.13956 1.04808 0)
(2.18453 1.00296 0)
(2.25518 0.946707 0)
(2.29531 0.898801 0)
(2.32599 0.857381 0)
(2.34891 0.834968 0)
(2.35383 0.836924 0)
(2.35893 0.836145 0)
(2.35715 0.83636 0)
(2.35233 0.839408 0)
(2.34787 0.84387 0)
(2.34392 0.844646 0)
(2.34108 0.846667 0)
(2.34148 0.847972 0)
(3 -2.79704e-07 0)
(3.00002 -3.82674e-05 0)
(2.99991 0.000130279 0)
(2.99995 9.66376e-05 0)
(2.99861 0.00182207 0)
(2.99133 0.0128866 0)
(2.96674 0.0509666 0)
(2.89195 0.183351 0)
(2.7897 0.395442 0)
(2.58707 0.706046 0)
(2.43591 0.861136 0)
(2.33738 0.927292 0)
(2.30042 0.917773 0)
(2.29847 0.899312 0)
(2.30712 0.885811 0)
(2.33907 0.869101 0)
(2.35121 0.868335 0)
(2.35711 0.850715 0)
(2.35988 0.842907 0)
(2.36058 0.841096 0)
(2.35675 0.843604 0)
(2.35168 0.846712 0)
(2.34658 0.848474 0)
(2.34673 0.850983 0)
(3 -1.85078e-08 0)
(3 -9.40063e-07 0)
(3 -5.82634e-07 0)
(3 -5.67421e-07 0)
(3.00001 -8.31982e-06 0)
(2.99999 2.10246e-05 0)
(3.00007 -0.000145762 0)
(2.99916 0.00141381 0)
(2.99102 0.0168272 0)
(2.89955 0.157417 0)
(2.70322 0.466603 0)
(2.5316 0.710767 0)
(2.29986 0.941186 0)
(2.26487 0.95968 0)
(2.2816 0.93683 0)
(2.30577 0.909448 0)
(2.32683 0.895082 0)
(2.34354 0.873278 0)
(2.35802 0.851347 0)
(2.36121 0.842075 0)
(2.36114 0.842926 0)
(2.35778 0.845136 0)
(2.35182 0.84849 0)
(2.35117 0.854148 0)
(3 1.32e-11 0)
(3 1.95409e-09 0)
(3 -2.02615e-08 0)
(3 -5.36767e-08 0)
(3 -6.78375e-07 0)
(3 -7.74655e-07 0)
(3 -5.96587e-06 0)
(3 -4.7902e-06 0)
(3.00002 -4.76339e-05 0)
(2.99932 0.000645612 0)
(2.98286 0.0246414 0)
(2.89678 0.145824 0)
(2.59616 0.519561 0)
(2.41727 0.751596 0)
(2.3777 0.830177 0)
(2.31288 0.884148 0)
(2.30681 0.890384 0)
(2.32215 0.877179 0)
(2.33807 0.861249 0)
(2.35247 0.855323 0)
(2.35778 0.845279 0)
(2.35904 0.840442 0)
(2.35603 0.842232 0)
(2.35041 0.849639 0)
(3 4.28608e-12 0)
(3 3.66567e-11 0)
(3 7.67493e-11 0)
(3 -7.03799e-10 0)
(3 1.32917e-10 0)
(3 -4.84642e-08 0)
(3 -9.39933e-08 0)
(3 -3.12861e-07 0)
(3 -6.10961e-06 0)
(3 -5.95793e-06 0)
(3.00002 -4.98665e-05 0)
(2.99891 0.00142756 0)
(2.96264 0.0467127 0)
(2.84949 0.197543 0)
(2.5542 0.579773 0)
(2.3245 0.844732 0)
(2.30849 0.856276 0)
(2.30963 0.86791 0)
(2.31305 0.870934 0)
(2.33131 0.860727 0)
(2.34686 0.843007 0)
(2.34974 0.836325 0)
(2.34985 0.836662 0)
(2.34715 0.84148 0)
(3 4.19482e-14 0)
(3 1.38227e-13 0)
(3 5.35826e-12 0)
(3 1.37829e-11 0)
(3 2.29784e-11 0)
(3 -3.36642e-10 0)
(3 9.13086e-11 0)
(3 -1.26462e-09 0)
(3 -4.17774e-09 0)
(3 -4.32041e-07 0)
(3 -3.71282e-06 0)
(3.00001 -1.22357e-05 0)
(2.99996 4.31064e-05 0)
(2.9969 0.00483694 0)
(2.93534 0.079232 0)
(2.72432 0.340888 0)
(2.51865 0.61951 0)
(2.29811 0.89441 0)
(2.26567 0.895657 0)
(2.29621 0.85829 0)
(2.31562 0.845121 0)
(2.33141 0.846532 0)
(2.33748 0.84596 0)
(2.33936 0.84134 0)
(3 -6.55183e-17 0)
(3 -7.87206e-16 0)
(3 6.22959e-14 0)
(3 1.3743e-12 0)
(3 5.27663e-12 0)
(3 7.60944e-12 0)
(3 5.73351e-12 0)
(3 8.29597e-12 0)
(3 -1.04844e-10 0)
(3 7.88106e-10 0)
(3 -1.87014e-08 0)
(3 -1.84389e-06 0)
(3 -1.73778e-06 0)
(3.00001 -1.3776e-05 0)
(2.99956 0.000586998 0)
(2.98518 0.0220256 0)
(2.88845 0.154109 0)
(2.58386 0.539736 0)
(2.44295 0.703799 0)
(2.34245 0.82031 0)
(2.30825 0.864155 0)
(2.31036 0.86104 0)
(2.32122 0.847166 0)
(2.327 0.838185 0)
(3 -1.25632e-15 0)
(3 -2.45471e-15 0)
(3 -4.72443e-15 0)
(3 -1.26262e-15 0)
(3 1.28879e-13 0)
(3 6.1521e-13 0)
(3 1.78033e-12 0)
(3 1.77392e-12 0)
(3 2.53189e-12 0)
(3 7.6085e-12 0)
(3 7.07124e-11 0)
(3 -1.78817e-08 0)
(3 -1.67272e-07 0)
(3 -2.25499e-06 0)
(3 -4.99761e-06 0)
(3 1.55278e-06 0)
(2.99756 0.00401142 0)
(2.94199 0.0789421 0)
(2.79808 0.293694 0)
(2.47746 0.676774 0)
(2.35444 0.830383 0)
(2.32261 0.831561 0)
(2.32154 0.827707 0)
(2.32559 0.829855 0)
(3 -3.98818e-15 0)
(3 -4.21607e-15 0)
(3 -4.50372e-15 0)
(3 -4.5226e-15 0)
(3 -7.06751e-15 0)
(3 -1.28884e-15 0)
(3 3.75582e-14 0)
(3 1.0394e-13 0)
(3 3.59869e-13 0)
(3 1.35356e-12 0)
(3 1.85262e-11 0)
(3 6.53233e-11 0)
(3 -3.57379e-10 0)
(3 -5.54985e-08 0)
(3 -8.77732e-07 0)
(3 -1.06987e-06 0)
(3.00001 -1.15986e-05 0)
(2.99946 0.000898972 0)
(2.98615 0.0250551 0)
(2.89164 0.160753 0)
(2.55983 0.574059 0)
(2.42304 0.740926 0)
(2.34133 0.834797 0)
(2.32722 0.847942 0)
(3 -2.79535e-15 0)
(3 -2.39433e-15 0)
(3 -2.54561e-15 0)
(3 -3.09261e-15 0)
(3 -3.97225e-15 0)
(3 -3.22249e-15 0)
(3 -3.27509e-15 0)
(3 -1.16369e-15 0)
(3 -1.43309e-15 0)
(3 2.80641e-14 0)
(3 7.17859e-13 0)
(3 1.62929e-11 0)
(3 1.35314e-11 0)
(3 2.52181e-10 0)
(3 -1.67184e-08 0)
(3 -1.00669e-07 0)
(3 -1.56457e-06 0)
(3 -6.67475e-06 0)
(2.99994 8.76987e-05 0)
(2.99579 0.00820531 0)
(2.91598 0.117046 0)
(2.75297 0.381928 0)
(2.42464 0.768378 0)
(2.36615 0.810006 0)
(3 -5.01841e-16 0)
(3 -6.73037e-16 0)
(3 -9.23637e-16 0)
(3 -1.35963e-15 0)
(3 -9.63667e-16 0)
(3 -4.3361e-16 0)
(3 -1.32035e-15 0)
(3 -1.40581e-15 0)
(3 -2.49975e-15 0)
(3 1.23537e-15 0)
(3 3.77064e-15 0)
(3 1.87957e-13 0)
(3 2.19286e-12 0)
(3 2.04028e-11 0)
(3 8.17769e-11 0)
(3 -1.71747e-09 0)
(3 -3.33013e-08 0)
(3 -1.4599e-06 0)
(3 -1.5889e-06 0)
(2.99999 6.71618e-07 0)
(2.99778 0.00415085 0)
(2.97028 0.0550624 0)
(2.77854 0.325098 0)
(2.48425 0.684328 0)
(3 3.37023e-17 0)
(3 -8.90669e-16 0)
(3 -8.15199e-16 0)
(3 -1.19548e-15 0)
(3 -2.45765e-16 0)
(3 -1.14616e-15 0)
(3 -1.87446e-15 0)
(3 -2.74685e-15 0)
(3 -4.27012e-16 0)
(3 2.81082e-15 0)
(3 1.84031e-15 0)
(3 -4.80339e-16 0)
(3 2.30448e-14 0)
(3 1.17126e-12 0)
(3 2.19853e-11 0)
(3 1.50703e-11 0)
(3 1.61044e-11 0)
(3 -3.78483e-08 0)
(3 -4.38918e-07 0)
(3 -4.70494e-07 0)
(3 -4.91805e-06 0)
(2.99936 0.00129957 0)
(2.97706 0.0386479 0)
(2.85044 0.231319 0)
(3 3.18692e-16 0)
(3 3.06037e-17 0)
(3 -7.44902e-16 0)
(3 -1.64678e-15 0)
(3 -1.92996e-15 0)
(3 -6.67492e-16 0)
(3 -1.63607e-16 0)
(3 -1.75246e-15 0)
(3 3.81328e-16 0)
(3 4.04048e-16 0)
(3 -4.66784e-16 0)
(3 -2.09812e-15 0)
(3 -3.53388e-16 0)
(3 2.36334e-15 0)
(3 8.67967e-13 0)
(3 4.59744e-12 0)
(3 1.27106e-11 0)
(3 7.04443e-11 0)
(3 -1.66999e-08 0)
(3 -1.2741e-07 0)
(3 -2.63709e-07 0)
(3 -6.94259e-07 0)
(2.99962 0.000779319 0)
(2.99005 0.0196342 0)
(3 5.44092e-16 0)
(3 9.35525e-16 0)
(3 7.13624e-16 0)
(3 1.74893e-16 0)
(3 4.40714e-16 0)
(3 1.59257e-15 0)
(3 1.93593e-15 0)
(3 8.80109e-17 0)
(3 -1.66883e-15 0)
(3 -1.57171e-15 0)
(3 2.15219e-16 0)
(3 8.62708e-16 0)
(3 9.27881e-16 0)
(3 1.72204e-15 0)
(3 3.25711e-15 0)
(3 1.42642e-13 0)
(3 3.60383e-12 0)
(3 8.45445e-12 0)
(3 -4.00822e-11 0)
(3 -1.16189e-08 0)
(3 -4.15194e-08 0)
(3 -2.49635e-07 0)
(3 1.33333e-05 0)
(3 -2.67612e-05 0)
(3 -1.79752e-15 0)
(3 -1.85939e-15 0)
(3 -4.79778e-16 0)
(3 3.66636e-16 0)
(3 -8.41705e-16 0)
(3 -1.40847e-15 0)
(3 -1.92412e-15 0)
(3 -2.1849e-15 0)
(3 -2.44895e-15 0)
(3 -1.03641e-15 0)
(3 -2.37226e-16 0)
(3 1.41001e-15 0)
(3 1.96805e-15 0)
(3 3.51924e-15 0)
(3 2.35981e-15 0)
(3 2.96885e-15 0)
(3 7.28083e-14 0)
(3 1.76118e-12 0)
(3 9.19122e-13 0)
(3 -1.16232e-10 0)
(3 -2.4853e-09 0)
(3 -1.07881e-07 0)
(3 -4.10281e-08 0)
(3 -7.2181e-07 0)
(3 -1.2134e-15 0)
(3 -1.31915e-15 0)
(3 -6.22626e-16 0)
(3 -5.26828e-16 0)
(3 -8.43448e-16 0)
(3 -9.00795e-16 0)
(3 -1.48227e-15 0)
(3 -2.15029e-15 0)
(3 -2.06398e-15 0)
(3 -2.49697e-15 0)
(3 -2.28547e-15 0)
(3 -1.28228e-15 0)
(3 1.33255e-15 0)
(3 2.36046e-15 0)
(3 1.84375e-15 0)
(3 6.2887e-15 0)
(3 -1.0217e-13 0)
(3 -1.75098e-12 0)
(3 -1.08327e-12 0)
(3 1.16222e-10 0)
(3 2.48516e-09 0)
(3 1.0788e-07 0)
(3 4.10264e-08 0)
(3 7.21807e-07 0)
(3 8.90163e-16 0)
(3 1.19315e-15 0)
(3 5.18759e-16 0)
(3 -6.44214e-16 0)
(3 -4.81292e-16 0)
(3 -5.30338e-16 0)
(3 -6.42731e-16 0)
(3 -1.74464e-15 0)
(3 -2.60685e-15 0)
(3 -2.57646e-15 0)
(3 -8.52847e-16 0)
(3 1.50961e-15 0)
(3 2.02428e-15 0)
(3 1.45049e-15 0)
(3 1.39079e-15 0)
(3 -1.34253e-13 0)
(3 -3.63596e-12 0)
(3 -8.28579e-12 0)
(3 4.01435e-11 0)
(3 1.1619e-08 0)
(3 4.15192e-08 0)
(3 2.49637e-07 0)
(3 -1.33333e-05 0)
(3 2.67612e-05 0)
(3 1.47916e-15 0)
(3 5.9438e-16 0)
(3 -1.48208e-15 0)
(3 -1.43077e-15 0)
(3 -1.36675e-15 0)
(3 -1.4212e-15 0)
(3 -1.15545e-15 0)
(3 7.70929e-18 0)
(3 -6.74555e-16 0)
(3 1.04933e-15 0)
(3 2.91415e-15 0)
(3 4.04317e-15 0)
(3 3.04822e-15 0)
(3 6.56334e-16 0)
(3 -8.65063e-13 0)
(3 -4.59055e-12 0)
(3 -1.27145e-11 0)
(3 -7.05905e-11 0)
(3 1.67e-08 0)
(3 1.2741e-07 0)
(3 2.63709e-07 0)
(3 6.9426e-07 0)
(2.99962 -0.000779319 0)
(2.99005 -0.0196342 0)
(3 1.8972e-16 0)
(3 -3.22974e-17 0)
(3 -2.33085e-19 0)
(3 2.10324e-16 0)
(3 1.72338e-16 0)
(3 -4.36035e-16 0)
(3 -2.76878e-16 0)
(3 5.56904e-16 0)
(3 1.00397e-15 0)
(3 8.26657e-16 0)
(3 3.33013e-15 0)
(3 2.31176e-15 0)
(3 -2.19319e-14 0)
(3 -1.17116e-12 0)
(3 -2.19848e-11 0)
(3 -1.50686e-11 0)
(3 -1.61062e-11 0)
(3 3.78483e-08 0)
(3 4.38918e-07 0)
(3 4.70494e-07 0)
(3 4.91805e-06 0)
(2.99936 -0.00129957 0)
(2.97706 -0.0386479 0)
(2.85044 -0.231319 0)
(3 -1.19087e-16 0)
(3 7.08568e-16 0)
(3 1.72549e-15 0)
(3 5.23416e-16 0)
(3 2.12694e-16 0)
(3 -2.69484e-16 0)
(3 1.04637e-15 0)
(3 1.71522e-15 0)
(3 1.31498e-15 0)
(3 7.35233e-16 0)
(3 1.38409e-15 0)
(3 -1.81381e-13 0)
(3 -2.18566e-12 0)
(3 -2.03939e-11 0)
(3 -8.17719e-11 0)
(3 1.71746e-09 0)
(3 3.33013e-08 0)
(3 1.4599e-06 0)
(3 1.5889e-06 0)
(2.99999 -6.71618e-07 0)
(2.99778 -0.00415085 0)
(2.97028 -0.0550624 0)
(2.77854 -0.325098 0)
(2.48425 -0.684328 0)
(3 1.12969e-15 0)
(3 1.23166e-15 0)
(3 1.19562e-16 0)
(3 1.66039e-15 0)
(3 3.50146e-15 0)
(3 3.78479e-15 0)
(3 5.39786e-15 0)
(3 3.50366e-15 0)
(3 -2.69056e-17 0)
(3 -2.77639e-14 0)
(3 -7.14132e-13 0)
(3 -1.62897e-11 0)
(3 -1.35292e-11 0)
(3 -2.52179e-10 0)
(3 1.67184e-08 0)
(3 1.00669e-07 0)
(3 1.56457e-06 0)
(3 6.67475e-06 0)
(2.99994 -8.76987e-05 0)
(2.99579 -0.00820531 0)
(2.91598 -0.117046 0)
(2.75297 -0.381928 0)
(2.42464 -0.768378 0)
(2.36615 -0.810006 0)
(3 1.46857e-15 0)
(3 1.46054e-15 0)
(3 1.50876e-15 0)
(3 2.93744e-15 0)
(3 6.24049e-15 0)
(3 -9.64886e-16 0)
(3 -4.02543e-14 0)
(3 -1.07842e-13 0)
(3 -3.64981e-13 0)
(3 -1.35729e-12 0)
(3 -1.85313e-11 0)
(3 -6.53298e-11 0)
(3 3.57375e-10 0)
(3 5.54985e-08 0)
(3 8.77733e-07 0)
(3 1.06987e-06 0)
(3.00001 1.15986e-05 0)
(2.99946 -0.000898972 0)
(2.98615 -0.0250551 0)
(2.89164 -0.160753 0)
(2.55983 -0.574059 0)
(2.42304 -0.740926 0)
(2.34133 -0.834797 0)
(2.32722 -0.847942 0)
(3 -9.92046e-17 0)
(3 7.76192e-16 0)
(3 2.84721e-15 0)
(3 -4.17224e-16 0)
(3 -1.25153e-13 0)
(3 -6.08031e-13 0)
(3 -1.77755e-12 0)
(3 -1.77374e-12 0)
(3 -2.5314e-12 0)
(3 -7.6123e-12 0)
(3 -7.07158e-11 0)
(3 1.78817e-08 0)
(3 1.67272e-07 0)
(3 2.25499e-06 0)
(3 4.9976e-06 0)
(3 -1.55278e-06 0)
(2.99756 -0.00401142 0)
(2.94199 -0.0789421 0)
(2.79808 -0.293694 0)
(2.47746 -0.676774 0)
(2.35444 -0.830383 0)
(2.32261 -0.831561 0)
(2.32154 -0.827707 0)
(2.32559 -0.829855 0)
(3 5.40555e-16 0)
(3 1.54317e-15 0)
(3 -6.11814e-14 0)
(3 -1.37382e-12 0)
(3 -5.27667e-12 0)
(3 -7.61018e-12 0)
(3 -5.73414e-12 0)
(3 -8.29817e-12 0)
(3 1.04842e-10 0)
(3 -7.88109e-10 0)
(3 1.87013e-08 0)
(3 1.84389e-06 0)
(3 1.73778e-06 0)
(3.00001 1.3776e-05 0)
(2.99956 -0.000586997 0)
(2.98518 -0.0220256 0)
(2.88845 -0.154109 0)
(2.58386 -0.539736 0)
(2.44295 -0.703799 0)
(2.34245 -0.82031 0)
(2.30825 -0.864155 0)
(2.31036 -0.86104 0)
(2.32122 -0.847166 0)
(2.327 -0.838185 0)
(3 -3.84655e-14 0)
(3 -1.34091e-13 0)
(3 -5.35413e-12 0)
(3 -1.37802e-11 0)
(3 -2.29801e-11 0)
(3 3.36639e-10 0)
(3 -9.13132e-11 0)
(3 1.26462e-09 0)
(3 4.17774e-09 0)
(3 4.32041e-07 0)
(3 3.71282e-06 0)
(3.00001 1.22357e-05 0)
(2.99996 -4.31064e-05 0)
(2.9969 -0.00483694 0)
(2.93534 -0.079232 0)
(2.72432 -0.340888 0)
(2.51865 -0.61951 0)
(2.29811 -0.89441 0)
(2.26567 -0.895657 0)
(2.29621 -0.85829 0)
(2.31562 -0.845121 0)
(2.33141 -0.846532 0)
(2.33748 -0.84596 0)
(2.33936 -0.84134 0)
(3 -4.28223e-12 0)
(3 -3.6654e-11 0)
(3 -7.67474e-11 0)
(3 7.03802e-10 0)
(3 -1.32918e-10 0)
(3 4.84642e-08 0)
(3 9.39933e-08 0)
(3 3.12861e-07 0)
(3 6.10961e-06 0)
(3 5.95793e-06 0)
(3.00002 4.98665e-05 0)
(2.99891 -0.00142756 0)
(2.96264 -0.0467127 0)
(2.84949 -0.197543 0)
(2.5542 -0.579773 0)
(2.3245 -0.844732 0)
(2.30849 -0.856276 0)
(2.30963 -0.86791 0)
(2.31305 -0.870934 0)
(2.33131 -0.860727 0)
(2.34686 -0.843007 0)
(2.34974 -0.836325 0)
(2.34985 -0.836662 0)
(2.34715 -0.84148 0)
(3 -1.31983e-11 0)
(3 -1.95409e-09 0)
(3 2.02615e-08 0)
(3 5.36767e-08 0)
(3 6.78375e-07 0)
(3 7.74655e-07 0)
(3 5.96587e-06 0)
(3 4.7902e-06 0)
(3.00002 4.76338e-05 0)
(2.99932 -0.000645612 0)
(2.98286 -0.0246414 0)
(2.89678 -0.145824 0)
(2.59616 -0.519561 0)
(2.41727 -0.751596 0)
(2.3777 -0.830177 0)
(2.31288 -0.884148 0)
(2.30681 -0.890384 0)
(2.32215 -0.877179 0)
(2.33807 -0.861249 0)
(2.35247 -0.855323 0)
(2.35778 -0.845279 0)
(2.35904 -0.840442 0)
(2.35603 -0.842232 0)
(2.35041 -0.849639 0)
(3 1.85077e-08 0)
(3 9.40063e-07 0)
(3 5.82634e-07 0)
(3 5.67421e-07 0)
(3.00001 8.31982e-06 0)
(2.99999 -2.10246e-05 0)
(3.00007 0.000145762 0)
(2.99916 -0.00141381 0)
(2.99102 -0.0168272 0)
(2.89955 -0.157417 0)
(2.70322 -0.466603 0)
(2.5316 -0.710767 0)
(2.29986 -0.941186 0)
(2.26487 -0.95968 0)
(2.2816 -0.93683 0)
(2.30577 -0.909448 0)
(2.32683 -0.895082 0)
(2.34354 -0.873278 0)
(2.35802 -0.851347 0)
(2.36121 -0.842075 0)
(2.36114 -0.842926 0)
(2.35778 -0.845136 0)
(2.35182 -0.84849 0)
(2.35117 -0.854148 0)
(3 2.79703e-07 0)
(3.00002 3.82674e-05 0)
(2.99991 -0.000130279 0)
(2.99995 -9.66375e-05 0)
(2.99861 -0.00182207 0)
(2.99133 -0.0128866 0)
(2.96674 -0.0509666 0)
(2.89195 -0.183351 0)
(2.7897 -0.395442 0)
(2.58707 -0.706046 0)
(2.43591 -0.861136 0)
(2.33738 -0.927292 0)
(2.30042 -0.917773 0)
(2.29847 -0.899312 0)
(2.30712 -0.885811 0)
(2.33907 -0.869101 0)
(2.35121 -0.868335 0)
(2.35711 -0.850715 0)
(2.35988 -0.842907 0)
(2.36058 -0.841096 0)
(2.35675 -0.843604 0)
(2.35168 -0.846712 0)
(2.34658 -0.848474 0)
(2.34673 -0.850983 0)
(2.99894 -0.00101798 0)
(2.98991 -0.0114179 0)
(2.95751 -0.0537072 0)
(2.90689 -0.13035 0)
(2.80113 -0.274688 0)
(2.67926 -0.463806 0)
(2.54189 -0.678887 0)
(2.36826 -0.911095 0)
(2.23027 -1.06387 0)
(2.17719 -1.1 0)
(2.13956 -1.04808 0)
(2.18453 -1.00296 0)
(2.25518 -0.946707 0)
(2.29531 -0.898801 0)
(2.32599 -0.857381 0)
(2.34891 -0.834968 0)
(2.35383 -0.836924 0)
(2.35893 -0.836145 0)
(2.35715 -0.83636 0)
(2.35233 -0.839408 0)
(2.34787 -0.84387 0)
(2.34392 -0.844646 0)
(2.34108 -0.846667 0)
(2.34148 -0.847972 0)
(2.93337 -0.0110106 0)
(2.8499 -0.0566708 0)
(2.74661 -0.181543 0)
(2.68901 -0.212 0)
(2.56694 -0.358078 0)
(2.4995 -0.449323 0)
(2.43033 -0.538402 0)
(2.34927 -0.626625 0)
(2.31317 -0.726875 0)
(2.25822 -0.798857 0)
(2.24817 -0.8538 0)
(2.27996 -0.886725 0)
(2.32337 -0.892962 0)
(2.33856 -0.88342 0)
(2.34853 -0.878384 0)
(2.3493 -0.871924 0)
(2.34609 -0.858612 0)