/*--------------------------------*- C++ -*----------------------------------*\
  =========                 |
  \\      /  F ield         | OpenFOAM: The Open Source CFD Toolbox
   \\    /   O peration     | Website:  https://openfoam.org
    \\  /    A nd           | Version:  7
     \\/     M anipulation  |
\*---------------------------------------------------------------------------*/
FoamFile
{
    version     2.0;
    format      ascii;
    class       volScalarField;
    location    "1";
    object      p;
}
// * * * * * * * * * * * * * * * * * * * * * * * * * * * * * * * * * * * * * //

dimensions      [1 -1 -2 0 0 0 0];

internalField   nonuniform List<scalar> 
18432
(
1
1
1
1
1
1
1
1
1
1
1
1
1
1
1
1
1
1
1
1
1
1
1
1
1
1
1
1
1
1
1
1
1
1
1
1
1
1
1
1
1
1
1
1
1
1
1
1
1
1
1
1
1
1
1
1
1
1
1
1
1
1
1
1
1
1
1
1
1
1
1
1
1
1
1
1
1
1
1
1
1
1
1
1
1
1
1
1
1
1
1
1
1
1
1
1
1
1
1
1
1
1
1
1
1
1
1
1
1
1
1
1
1
1
1
1
1
1
1
1
1
1
1
1
1
1
1
1
1
1
1
1
1
1
1
1
1
1
1
1
1
1
1
1
1
1
1
1
1
1
1
1
1
1
1
1
1
1
1
1
1
1
1
1
1
1
1
1
1
1
1
1
1
1
1
1
1
1
1
1
1
1
1
1
1
1
1
1
1
1
1
1
1
1
1
1
1
1
1
1
1
1
1
1
1
1
1
1
1
1
1
1
1
1
1
1
1
1
1
1
1
1
1
1
1
1
1
1
1
1
1
1
1
1
1
1
1
1
1
1
1
1
1
1
1
1
1
1
1
1
1
1
1
1
1
1
1
1
1
1
1
1
1
1
1
1
1
1
1
1
1
1
1
1
1
1
1
1
1
1
1
1
1
1
1
1
1
1
1
1
1
1
1
1
1
1
1
1
1
1
1
1
1
1
1
1
1
1
1
1
1
1
1
1
1
1
1
1
1
1
1
1
1
1
1
1
1
1
1
1
1
1
1
1
1
1
1
1
1
1
1
1
1
1
1
1
1
1
1
1
1
1
1
1
1
1
1
1
1
1
1
1
1
1
1
1
1
1
1
1
1
1
1
1
1
1
1
1
1
1
1
1
1
1
1
1
1
1
1
1
1
1
1
1
1
1
1
1
1
1
1
1
1
1
1
1
1
1
1
1
1
1
1
1
1
1
1
1
1
1
1
1
1
1
1
1
1
1
1
1
1
1
1
1
1
1
1
1
1
1
1
1
1
1
1
1
1
1
1
1
1
1
1
1
1
1
1
1
1
1
1
1
1
1
1
1
1
1
1
1
1
1
1
1
1
1
1
1
1
1
1
1
1
1
1
1
1
1
1
1
1
1
1
1
1
1
1
1
1
1
1
1
1
1
1
1
1
1
1
1
1
1
1
1
1
1
1
1
1
1
1
1
1
1
1
1
1
1
1
1
1
1
1
1
1
1
1
1
1
1
1
1
1
1
1
1
1
1
1
1
1
1
1
1
1
1
1
1
1
1
1
1
1
1
1
1
1
1
1
1
1
1
1
1
1
1
1
1
1
1
1
1
1
1
1
1
1
1
1
1
1
1
1
1
1
1
1
1
1
1
1
1
1
1
1
1
1
1
1
1
1
1
1
1
1
1
1
1
1
1
1
1
1
1
1
1
1
1
1
1
1
1
1
1
1
1
1
1
1
1
1
1
1
1
1
1
1
1
1
1
1
1
1
1
1
1
1
1
1
1
1
1
1
1
1
1
1
1
1
1
1
1
1
1
1
1
1
1
1
1
1
1
1
1
1
1
1
1
1
1
1
1
1
1
1
1
1
1
1
1
1
1
1
1
1
1
1
1
1
1
1
1
1
1
1
1
1
1
1
1
1
1
1
1
1
1
1
1
1
1
1
1
1
1
1
1
1
1
1
1
1
1
1
1
1
1
1
1
1
1
1
1
1
1
1
1
1
1
1
1
1
1
1
1
1
1
1
1
1
1
1
1
1
1
1
1
1
1
1
1
1
1
1
1
1
1
1
1
1
1
1
1
1
1
1
1
1
1
1
1
1
1
1
1
1
1
1
1
1
1
1
1
1
1
1
1
1
1
1
1
1
1
1
1
1
1
1
1
1
1
1
1
1
1
1
1
1
1
1
1
1
1
1
1
1
1
1
1
1
1
1
1
1
1
1
1
1
1
1
1
1
1
1
1
1
1
1
1
1
1
1
1
1
1
1
1
1
1
1
1
1
1
1
1
1
1
1
1
1
1
1
1
1
1
1
1
1
1
1
1
1
1
1
1
1
1
1
1
1
1
1
1
1
1
1
1
1
1
1
1
1
1
1
1
1
1
1
1
1
1
1
1
1
1
1
1
1
1
1
1
1
1
1
1
1
1
1
1
1
1
1
1
1
1
1
1
1
1
1
1
1
1
1
1
1
1
1
1
1
1
1
1
1
1
1
1
1
1
1
1
1
1
1
1
1
1
1
1
1
1
1
1
1
1
1
1
1
1
1
1
1
1
1
1
1
1
1
1
1
1
1
1
1
1
1
1
1
1
1
1
1
1
1
1
1
1
1
1
1
1
1
1
1
1
1
1
1
1
1
1
1
1
1
1
1
1
1
1
1
1
1
1
1
1
1
1
1
1
1
1
1
1
1
1
1
1
1
1
1
1
1
1
1
1
1
1
1
1
1
1
1
1
1
1
1
1
1
1
1
1
1
1
1
1
1
1
1
1
1
1
1
1
1
1
1
1
1
1
1
1
1
1
1
1
1
1
1
1
1
1
1
1
1
1
1
1
1
1
1
1
1
1
1
1
1
1
1
1
1
1
1
1
1
1
1
1
1
1
1
1
1
1
1
1
1
1
1
1
1
1
1
1
1
1
1
1
1
1
1
1
1
1
1
1
1
1
1
1
1
1
1
1
1
1
1
1
1
1
1
1
1
1
1
1
1
1
1
1
1
1
1
1
1
1
1
1
1
1
1
1
1
1
1
1
1
1
1
1
1
1
1
1
1
1
1
1
1
1
1
1
1
1
1
1
1
1
1
1
1
1
1
1
1
1
1
1
1
1
1
1
1
1
1
1
1
1
1
1
1
1
1
1
1
1
1
1
1
1
1
1
1
1
1
1
1
1
1
1
1
1
1
1
1
1
1
1
1
1
1
1
1
1
1
1
1
1
1
1
1
1
1
1
1
1
1
1
1
1
1
1
1
1
1
1
1
1
1
1
1
1
1
1
1
1
1
1
1
1
1
1
1
1
1
1
1
1
1
1
1
1
1
1
1
1
1
1
1
1
1
1
1
1
1
1
1
1
1
1
1
1
1
1
1
1
1
1
1
1
1
1
1
1
1
1
1
1
1
1
1
1
1
1
1
1
1
1
1
1
1
1
1
1
1
1
1
1
1
1
1
1
1
1
1
1
1
1
1
1
1
1
1
1
1
1
1
1
1
1
1
1
1
1
1
1
1
1
1
1
1
1
1
1
1
1
1
1
1
1
1
1
1
1
1
1
1
1
1
1
1
1
1
1
1
1
1
1
1
1
1
1
1
1
1
1
1
1
1
1
1
1
1
1
1
1
1
1
1
1
1
1
1
1
1
1
1
1
1
1
1
1
1
1
1
1
1
1
1
1
1
1
1
1
1
1
1
1
1
1
1
1
1
1
1
1
1
1
1
1
1
1
1
1
1
1
1
1
1
1
1
1
1
1
1
1
1
1
1
1
1
1
1
1
1
1
1
1
1
1
1
1
1
1
1
1
1
1
1
1
1
1
1
1
1
1
1
1
1
1
1
1
1
1
1
1
1
1
1
1
1
1
1
1
1
1
1
1
1
1
1
1
1
1
1
1
1
1
1
1
1
1
1
1
1
1
1
1
1
1
1
1
1
1
1
1
1
1
1
1
1
1
1
1
1
1
1
1
1
1
1
1
1
1
1
1
1
1
1
1
1
1
1
1
1
1
1
1
1
1
1
1
1
1
1
1
1
1
1
1
1
1
1
1
1
1
1
1
1
1
1
1
1
1
1
1
1
1
1
1
1
1
1
1
1
1
1
1
1
1
1
1
1
1
1
1
1
1
1
1
1
1
1
1
1
1
1
1
1
1
1
1
1
1
1
1
1
1
1
1
1
1
1
1
1
1
1
1
1
1
1
1
1
1
1
1
1
1
1
1
1
1
1
1
1
1
1
1
1
1
1
1
1
1
1
1
1
1
1
1
1
1
1
1
1
1
1
1
1
1
1
1
1
1
1
1
1
1
1
1
1
1
1
1
1
1
1
1
1
1
1
1
1
1
1
1
1
1
1
1
1
1
1
1
1
1
1
1
1
1
1
1
1
1
1
1
1
1
1
1
1
1
1
1
1
1
1
1
1
1
1
1
1
1
1
1
1
1
1
1
1
1
1
1
1
1
1
1
1
1
1
1
1
1
1
1
1
1
1
1
1
1
1
1
1
1
1
1
1
1
1
1
1
1
1
1
1
1
1
1
1
1
1
1
1
1
1
1
1
1
1
1
1
1
1
1
1
1
1
1
1
1
1
1
1
1
1
1
1
1
1
1
1
1
1
1
1
1
1
1
1
1
1
1
1
1
1
1
1
1
1
1
1
1
1
1
1
1
1
1
1
1
1
1
1
1
1
1
1
1
1
1
1
1
1
1
1
1
1
1
1
1
1
1
1
1
1
1
1
1
1
1
1
1
1
1
1
1
1
1
1
1
1
1
1
1
1
1
1
1
1
1
1
1
1
1
1
1
1
1
1
1
1
1
1
1
1
1
1
1
1
1
1
1
1
1
1
1
1
1
1
1
1
1
1
1
1
1
1
1
1
1
1
1
1
1
1
1
1
1
1
1
1
1
1
1
1
1
1
1
1
1
1
1
1
1
1
1
1
1
1
1
1
1
1
1
1
1
1
1
1
1
1
1
1
1
1
1
1
1
1
1
1
1
1
1
1
1
1
1
1
1
1
1
1
1
1
1
1
1
1
1
1
1
1
1
1
1
1
1
1
1
1
1
1
1
1
1
1
1
1
1
1
1
1
1
1
1
1
1
1
1
1
1
1
1
1
1
1
1
1
1
1
1
1
1
1
1
1
1
1
1
1
1
1
1
1
1
1
1
1
1
1
1
1
1
1
1
1
1
1
1
1
1
1
1
1
1
1
1
1
1
1
1
1
1
1
1
1
1
1
1
1
1
1
1
1
1
1
1
1
1
1
1
1
1
1
1
1
1
1
1
1
1
1
1
1
1
1
1
1
1
1
1
1
1
1
1
1
1
1
1
1
1
1
1
1
1
1
1
1
1
1
1
1
1
1
1
1
1
1
1
1
1
1
1
1
1
1
1
1
1
1
1
1
1
1
1
1
1
1
1
1
1
1
1
1
1
1
1
1
1
1
1
1
1
1
1
1
1
1
1
1
1
1
1
1
1
1
1
1
1
1
1
1
1
1
1
1
1
1
1
1
1
1
1
1
1
1
1
1
1
1
1
1
1
1
1
1
1
1
1
1
1
1
1
1
1
1
1
1
1
1
1
1
1
1
1
1
1
1
1
1
1
1
1
1
1
1
1
1
1
1
1
1
1
1
1
1
1
1
1
1
1
1
1
1
1
1
1
1
1
1
1
1
1
1
1
1
1
1
1
1
1
1
1
1
1
1
1
1
1
1
1
1
1
1
1
1
1
1
1
1
1
1
1
1
1
1
1
1
1
1
1
1
1
1
1
1
1
1
1
1
1
1
1
1
1
1
1
1
1
1
1
1
1
1
1
1
1
1
1
1
1
1
1
1
1
1
1
1
1
1
1
1
1
1
1
1
1
1
1
1
1
1
1
1
1
1
1
1
1
1
1
1
1
1
1
1
1
1
1
1
1
1
1
1
1
1
1
1
1
1
1
1
1
1
1
1
1
1
1
1
1
1
1
1
1
1
1
1
1
1
1
1
1
1
1
1
1
1
1
1
1
1
1
1
1
1
1
1
1
1
1
1
1
1
1
1
1
1
1
1
1
1
1
1
1
1
1
1
1
1
1
1
1
1
1
1
1
1
1
1
1
1
1
1
1
1
1
1
1
1
1
1
1
1
1
1
1
1
1
1
1
1
1
1
1
1
1
1
1
1
1
1
1
1
1
1
1
1
1
1
1
1
1
1
1
1
1
1
1
1
1
1
1
1
1
1
1
1
1
1
1
1
1
1
1
1
1
1
1
1
1
1
1
1
1
1
1
1
1
1
1
1
1
1
1
1
1
1
1
1
1
1
1
1
1
1
1
1
1
1
1
1
1
1
1
1
1
1
1
1
1
1
1
1
1
1
1
1
1
1
1
1
1
1
1
1
1
1
1
1
1
1
1
1
1
1
1
1
1
1
1
1
1
1
1
1
1
1
1
1
1
1
1
1
1
1
1
1
1
1
1
1
1
1
1
1
1
1
1
1
1
1
1
1
1
1
1
1
1
1
1
1
1
1
1
1
1
1
1
1
1
1
1
1
1
1
1
1
1
1
1
1
1
1
1
1
1
1
1
1
1
1
1
1
1
1
1
1
1
1
1
1
1
1
1
1
1
1
1
1
1
1
1
1
1
1
1
1
1
1
1
1
1
1
1
1
1
1
1
1
1
1
1
1
1
1
1
1
1
1
1
1
1
1
1
1
1
1
1
1
1
1
1
1
1
1
1
1
1
1
1
1
1
1
1
1
1
1
1
1
1
1
1
1
1
1
1
1
1
1
1
1
1
1
1
1
1
1
1
1
1
1
1
1
1
1
1
1
1
1
1
1
1
1
1
1
1
1
1
1
1
1
1
1
1
1
1
1
1
1
1
1
1
1
1
1
1
1
1
1
1
1
1
1
1
1
1
1
1
1
1
1
1
1
1
1
1
1
1
1
1
1
1
1
1
1
1
1
1
1
1
1
1
1
1
1
1
1
1
1
1
1
1
1
1
1
1
1
1
1
1
1
1
1
1
1
1
1
1
1
1
1
1
1
1
1
1
1
1
1
1
1
1
1
1
1
1
1
1
1
1
1
1
1
1
1
1
1
1
1
1
1
1
1
1
1
1
1
1
1
1
1
1
1
1
1
1
1
1
1
1
1
1
1
1
1
1
1
1
1
1
1
1
1
1
1
1
1
1
1
1
1
1
1
1
1
1
1
1
1
1
1
1
1
1
1
1
1
1
1
1
1.28939
1.76042
2.31356
2.87729
3.58785
4.16035
4.65762
5.12194
5.3451
5.25148
4.91836
4.47401
4.09211
3.79707
3.6609
3.57493
3.55422
3.56934
3.60672
3.64823
3.68569
3.70452
3.71595
3.72726
3.74008
3.75227
3.76133
3.76704
3.77277
3.7827
3.79473
3.79958
3.79886
3.79493
3.78679
3.77712
3.77031
3.76698
3.76519
3.76512
3.7652
3.76756
3.76934
3.76952
3.76918
3.76834
3.76686
3.76764
1.00197
1.01411
1.0766
1.20261
1.40873
1.76948
2.21454
2.75349
3.31871
3.73338
3.88465
4.06656
4.05738
3.96079
3.83856
3.78596
3.74555
3.69664
3.67282
3.66895
3.68107
3.70513
3.72676
3.73745
3.74097
3.74583
3.75217
3.75514
3.75742
3.76257
3.77004
3.77696
3.78082
3.78139
3.77912
3.77477
3.7711
3.77041
3.77172
3.774
3.77694
3.7791
3.77904
3.77798
3.77528
3.76979
3.7663
3.76766
1
0.999977
1.00007
1.00007
1.00129
1.01343
1.06107
1.22258
1.6004
2.36033
3.30323
3.9305
4.31467
4.32243
4.24738
4.11264
3.97969
3.79713
3.6819
3.67788
3.69001
3.714
3.74072
3.7503
3.7527
3.74864
3.75015
3.75367
3.7559
3.75941
3.76391
3.76804
3.76828
3.76671
3.76394
3.76176
3.76158
3.76342
3.76708
3.77321
3.78127
3.78656
3.78734
3.78623
3.78312
3.77685
3.77123
3.77274
1
1
1
1
0.999998
1
0.999992
1.00009
1.00545
1.07038
1.4389
2.11796
3.22615
3.74603
4.04378
4.02346
3.93549
3.90871
3.84994
3.78461
3.76839
3.73346
3.72267
3.72092
3.72604
3.73219
3.74485
3.75882
3.76699
3.77254
3.77645
3.77628
3.77526
3.77225
3.76999
3.76839
3.76663
3.76681
3.76961
3.77454
3.78021
3.78319
3.78261
3.7801
3.77523
3.76975
3.76869
3.77071
1
1
1
1
1
1
1
0.999999
1
0.99992
1.00243
1.03881
1.30333
1.97325
2.86608
3.72855
3.90304
4.00423
3.98949
3.93285
3.81382
3.71737
3.67775
3.66967
3.67661
3.68475
3.70185
3.72598
3.74917
3.7686
3.7806
3.78256
3.78235
3.77917
3.77819
3.77822
3.77715
3.7767
3.77861
3.78186
3.78409
3.78351
3.78108
3.77681
3.77011
3.76549
3.76448
3.76594
1
1
1
1
1
1
1
1
1
0.999997
0.999997
0.999953
1.00082
1.03124
1.20234
1.8409
2.67001
3.51273
3.8849
3.86616
3.85525
3.80689
3.75204
3.71791
3.69185
3.68454
3.68815
3.70201
3.72179
3.74212
3.75931
3.77153
3.77314
3.77317
3.77249
3.77157
3.76946
3.76887
3.77156
3.77425
3.77414
3.77223
3.76974
3.76693
3.76417
3.76296
3.76179
3.76737
1
1
1
1
1
1
1
1
1
1
1
0.999998
0.999998
0.99997
1.00037
1.02196
1.18812
1.66637
2.53192
3.22195
3.7758
3.87544
3.8614
3.81746
3.7788
3.74486
3.7168
3.71005
3.71291
3.72311
3.73429
3.751
3.76002
3.7641
3.76245
3.76103
3.76089
3.76294
3.76939
3.77259
3.77285
3.77206
3.77125
3.77088
3.77061
3.77045
3.7697
3.77475
1
1
1
1
1
1
1
1
1
1
1
1
1
0.999998
0.999998
0.999972
1.00051
1.01182
1.15821
1.57591
2.43693
3.10372
3.53194
3.76468
3.79764
3.79479
3.762
3.74692
3.74373
3.74265
3.74253
3.74113
3.74616
3.7541
3.75952
3.76284
3.76547
3.77008
3.7769
3.77943
3.77911
3.77756
3.77513
3.77443
3.77381
3.77343
3.77344
3.77568
1
1
1
1
1
1
1
1
1
1
1
1
1
1
1
0.999998
0.999998
0.99998
1.00049
1.01079
1.12139
1.57421
2.27122
3.11908
3.43298
3.6014
3.70547
3.75124
3.75258
3.73235
3.72809
3.73165
3.73807
3.74836
3.75929
3.76848
3.77622
3.78253
3.78601
3.78558
3.78388
3.7819
3.77804
3.77393
3.77194
3.77144
3.77172
3.77342
1
1
1
1
1
1
1
1
1
1
1
1
1
1
1
1
1
0.999998
0.999998
0.999985
1.00032
1.01376
1.10055
1.51651
2.20986
3.03344
3.51229
3.60021
3.68153
3.6827
3.69236
3.70666
3.71225
3.72094
3.73509
3.75018
3.76496
3.77499
3.77823
3.77933
3.7786
3.77868
3.77796
3.77573
3.77364
3.77332
3.7744
3.77525
1
1
1
1
1
1
1
1
1
1
1
1
1
1
1
1
1
1
1
0.999999
0.999999
0.999988
1.00026
1.01168
1.10838
1.46222
2.2236
2.95486
3.51141
3.67944
3.70285
3.7164
3.71854
3.71717
3.72566
3.73466
3.74616
3.75982
3.76671
3.76876
3.76765
3.76829
3.76884
3.7673
3.76664
3.76739
3.77017
3.7719
1
1
1
1
1
1
1
1
1
1
1
1
1
1
1
1
1
1
1
1
1
0.999998
0.999999
0.999989
1.00042
1.00923
1.12914
1.48443
2.25517
2.95554
3.47477
3.69964
3.74644
3.74972
3.76698
3.76692
3.76591
3.77282
3.77926
3.77997
3.77739
3.77405
3.76983
3.76693
3.76752
3.76874
3.76998
3.77137
1
1
1
1
1
1
1
1
1
1
1
1
1
1
1
1
1
1
1
1
1
1
1
0.999998
0.999999
0.999989
1.00084
1.01155
1.13243
1.56626
2.34471
3.04645
3.42401
3.64402
3.73858
3.75089
3.75866
3.77185
3.77708
3.77858
3.77804
3.77536
3.77579
3.77736
3.77917
3.78066
3.77978
3.7789
1
1
1
1
1
1
1
1
1
1
1
1
1
1
1
1
1
1
1
1
1
1
1
1
1
0.999998
0.999999
0.999993
1.00107
1.01982
1.15082
1.67168
2.46284
3.2868
3.51094
3.60688
3.67395
3.72274
3.73567
3.73956
3.74453
3.75597
3.77069
3.77889
3.78133
3.78101
3.7806
3.77858
1
1
1
1
1
1
1
1
1
1
1
1
1
1
1
1
1
1
1
1
1
1
1
1
1
1
1
0.999999
0.999998
1.00001
1.00145
1.03586
1.21402
1.84503
2.66722
3.38769
3.67823
3.7016
3.71777
3.71866
3.72384
3.73859
3.75513
3.76528
3.7706
3.77422
3.77704
3.77583
1
1
1
1
1
1
1
1
1
1
1
1
1
1
1
1
1
1
1
1
1
1
1
1
1
1
1
1
1
1
0.999997
1.0001
1.00305
1.06274
1.33982
2.09638
2.93086
3.49497
3.73875
3.75561
3.77292
3.78897
3.7902
3.78685
3.78359
3.78161
3.77875
3.77624
1
1
1
1
1
1
1
1
1
1
1
1
1
1
1
1
1
1
1
1
1
1
1
1
1
1
1
1
1
1
1
1
0.999996
1.00041
1.0081
1.12126
1.56981
2.45356
3.15197
3.52136
3.72637
3.77581
3.77648
3.78877
3.79296
3.79133
3.78633
3.78176
1
1
1
1
1
1
1
1
1
1
1
1
1
1
1
1
1
1
1
1
1
1
1
1
1
1
1
1
1
1
1
1
0.999999
0.999999
1
1.00159
1.02514
1.2375
1.90199
2.9143
3.46408
3.58425
3.66244
3.72855
3.75771
3.76571
3.76671
3.76679
1
1
1
1
1
1
1
1
1
1
1
1
1
1
1
1
1
1
1
1
1
1
1
1
1
1
1
1
1
1
1
1
1
1
1
0.999998
1.00007
1.00622
1.08286
1.50541
2.38046
3.25474
3.68933
3.72997
3.75072
3.75265
3.74722
3.74943
1
1
1
1
1
1
1
1
1
1
1
1
1
1
1
1
1
1
1
1
1
1
1
1
1
1
1
1
1
1
1
1
1
1
1
1
1
1.00001
1.00081
1.02581
1.23929
1.94921
2.90852
3.51764
3.77571
3.79526
3.78991
3.78602
1
1
1
1
1
1
1
1
1
1
1
1
1
1
1
1
1
1
1
1
1
1
1
1
1
1
1
1
1
1
1
1
1
1
1
1
1
1
0.999999
1.00015
1.00587
1.10417
1.61056
2.61358
3.30685
3.57036
3.74718
3.77109
1
1
1
1
1
1
1
1
1
1
1
1
1
1
1
1
1
1
1
1
1
1
1
1
1
1
1
1
1
1
1
1
1
1
1
1
1
1
1
0.999999
1.00001
1.00194
1.03835
1.35354
2.18975
3.25275
3.60296
3.67382
1
1
1
1
1
1
1
1
1
1
1
1
1
1
1
1
1
1
1
1
1
1
1
1
1
1
1
1
1
1
1
1
1
1
1
1
1
1
1
1
1
1
1.0003
1.01738
1.17891
1.93401
2.94893
3.60878
1
1
1
1
1
1
1
1
1
1
1
1
1
1
1
1
1
1
1
1
1
1
1
1
1
1
1
1
1
1
1
1
1
1
1
1
1
1
1
1
1
1
1
1.00012
1.0048
1.11971
1.66681
2.7809
1
1
1
1
1
1
1
1
1
1
1
1
1
1
1
1
1
1
1
1
1
1
1
1
1
1
1
1
1
1
1
1
1
1
1
1
1
1
1
1
1
1
1
1
1.00002
1.00316
1.05583
1.46102
1
1
1
1
1
1
1
1
1
1
1
1
1
1
1
1
1
1
1
1
1
1
1
1
1
1
1
1
1
1
1
1
1
1
1
1
1
1
1
1
1
1
1
1
1
1.00001
1.00087
1.0222
1
1
1
1
1
1
1
1
1
1
1
1
1
1
1
1
1
1
1
1
1
1
1
1
1
1
1
1
1
1
1
1
1
1
1
1
1
1
1
1
1
1
1
1
1
1
1.00001
0.999802
1
1
1
1
1
1
1
1
1
1
1
1
1
1
1
1
1
1
1
1
1
1
1
1
1
1
1
1
1
1
1
1
1
1
1
1
1
1
1
1
1
1
1
1
1
1
1
0.999928
1
1
1
1
1
1
1
1
1
1
1
1
1
1
1
1
1
1
1
1
1
1
1
1
1
1
1
1
1
1
1
1
1
1
1
1
1
1
1
1
1
1
1
1
1
1
1
0.999991
1
1
1
1
1
1
1
1
1
1
1
1
1
1
1
1
1
1
1
1
1
1
1
1
1
1
1
1
1
1
1
1
1
1
1
1
1
1
1
1
1
1
1
1
1
1
1
1
1
1
1
1
1
1
1
1
1
1
1
1
1
1
1
1
1
1
1
1
1
1
1
1
1
1
1
1
1
1
1
1
1
1
1
1
1
1
1
1
1
1
1
1
1
1
1
1
1
1
1
1
1
1
1
1
1
1
1
1
1
1
1
1
1
1
1
1
1
1
1
1
1
1
1
1
1
1
1
1
1
1
1
1
1
1
1
1
1
1
1
1
1
1
1
1
1
1
1
1
1
1
1
1
1
1
1
1
1
1
1
1
1
1
1
1
1
1
1
1
1
1
1
1
1
1
1
1
1
1
1
1
1
1
1
1
1
1
1
1
1
1
1
1
1
1
1
1
1
1
1
1
1
1
1
1
1
1
1
1
1
1
1
1
1
1
1
1
1
1
1
1
1
1
1
1
1
1
1
1
1
1
1
1
1
1
1
1
1
1
1
1
1
1
1
1
1
1
1
1
1
1
1
1
1
1
1
1
1
1
1
1
1
1
1
1
1
1
1
1
1
1
1
1
1
1
1
1
1
1
1
1
1
1
1
1
1
1
1
1
1
1
1
1
1
1
1
1
1
1
1
1
1
1
1
1
1
1
1
1
1
1
1
1
1
1
1
1
1
1
1
1
1
1
1
1
1
1
1
1
1
1
1
1
1
1
1
0.999991
1
1
1
1
1
1
1
1
1
1
1
1
1
1
1
1
1
1
1
1
1
1
1
1
1
1
1
1
1
1
1
1
1
1
1
1
1
1
1
1
1
1
1
1
1
1
1
0.999927
1
1
1
1
1
1
1
1
1
1
1
1
1
1
1
1
1
1
1
1
1
1
1
1
1
1
1
1
1
1
1
1
1
1
1
1
1
1
1
1
1
1
1
1
1
1
1.00001
0.9998
1
1
1
1
1
1
1
1
1
1
1
1
1
1
1
1
1
1
1
1
1
1
1
1
1
1
1
1
1
1
1
1
1
1
1
1
1
1
1
1
1
1
1
1
1
1.00001
1.00088
1.02206
1
1
1
1
1
1
1
1
1
1
1
1
1
1
1
1
1
1
1
1
1
1
1
1
1
1
1
1
1
1
1
1
1
1
1
1
1
1
1
1
1
1
1
1
1.00002
1.00317
1.05581
1.46119
1
1
1
1
1
1
1
1
1
1
1
1
1
1
1
1
1
1
1
1
1
1
1
1
1
1
1
1
1
1
1
1
1
1
1
1
1
1
1
1
1
1
1
1.00012
1.00479
1.11978
1.66633
2.78287
1
1
1
1
1
1
1
1
1
1
1
1
1
1
1
1
1
1
1
1
1
1
1
1
1
1
1
1
1
1
1
1
1
1
1
1
1
1
1
1
1
1
1.0003
1.01738
1.17891
1.93391
2.94879
3.60954
1
1
1
1
1
1
1
1
1
1
1
1
1
1
1
1
1
1
1
1
1
1
1
1
1
1
1
1
1
1
1
1
1
1
1
1
1
1
1
0.999999
1.00001
1.00194
1.03834
1.35355
2.1898
3.25257
3.6031
3.67386
1
1
1
1
1
1
1
1
1
1
1
1
1
1
1
1
1
1
1
1
1
1
1
1
1
1
1
1
1
1
1
1
1
1
1
1
1
1
0.999999
1.00015
1.00587
1.10417
1.61056
2.61361
3.30681
3.57034
3.74727
3.7711
1
1
1
1
1
1
1
1
1
1
1
1
1
1
1
1
1
1
1
1
1
1
1
1
1
1
1
1
1
1
1
1
1
1
1
1
1
1.00001
1.00081
1.02581
1.2393
1.9492
2.90853
3.51765
3.77569
3.79526
3.78993
3.78602
1
1
1
1
1
1
1
1
1
1
1
1
1
1
1
1
1
1
1
1
1
1
1
1
1
1
1
1
1
1
1
1
1
1
1
0.999998
1.00007
1.00622
1.08286
1.50541
2.38047
3.25474
3.68933
3.72998
3.75072
3.75265
3.74722
3.74943
1
1
1
1
1
1
1
1
1
1
1
1
1
1
1
1
1
1
1
1
1
1
1
1
1
1
1
1
1
1
1
1
0.999999
0.999999
1
1.00159
1.02514
1.2375
1.90199
2.9143
3.46408
3.58426
3.66244
3.72855
3.75771
3.76571
3.76671
3.76679
1
1
1
1
1
1
1
1
1
1
1
1
1
1
1
1
1
1
1
1
1
1
1
1
1
1
1
1
1
1
1
1
0.999996
1.00041
1.00811
1.12126
1.56982
2.45356
3.15198
3.52136
3.72637
3.77581
3.77648
3.78877
3.79296
3.79133
3.78633
3.78176
1
1
1
1
1
1
1
1
1
1
1
1
1
1
1
1
1
1
1
1
1
1
1
1
1
1
1
1
1
1
0.999997
1.0001
1.00305
1.06274
1.33982
2.09638
2.93086
3.49497
3.73875
3.75561
3.77292
3.78897
3.7902
3.78685
3.78359
3.78161
3.77875
3.77624
1
1
1
1
1
1
1
1
1
1
1
1
1
1
1
1
1
1
1
1
1
1
1
1
1
1
1
0.999999
0.999998
1.00001
1.00145
1.03586
1.21402
1.84503
2.66722
3.38769
3.67823
3.7016
3.71777
3.71866
3.72384
3.73859
3.75513
3.76528
3.7706
3.77421
3.77704
3.77583
1
1
1
1
1
1
1
1
1
1
1
1
1
1
1
1
1
1
1
1
1
1
1
1
1
0.999998
0.999999
0.999993
1.00107
1.01982
1.15082
1.67168
2.46283
3.28681
3.51095
3.60689
3.67395
3.72273
3.73567
3.73956
3.74453
3.75597
3.77069
3.77889
3.78133
3.78101
3.7806
3.77858
1
1
1
1
1
1
1
1
1
1
1
1
1
1
1
1
1
1
1
1
1
1
1
0.999998
0.999999
0.999989
1.00084
1.01155
1.13243
1.56626
2.34471
3.04645
3.424
3.64402
3.73858
3.75089
3.75866
3.77185
3.77708
3.77858
3.77804
3.77536
3.77579
3.77736
3.77917
3.78066
3.77978
3.7789
1
1
1
1
1
1
1
1
1
1
1
1
1
1
1
1
1
1
1
1
1
0.999998
0.999999
0.999989
1.00042
1.00923
1.12914
1.48443
2.25517
2.95554
3.47477
3.69964
3.74644
3.74972
3.76698
3.76692
3.76591
3.77282
3.77926
3.77997
3.77739
3.77405
3.76983
3.76693
3.76752
3.76874
3.76998
3.77137
1
1
1
1
1
1
1
1
1
1
1
1
1
1
1
1
1
1
1
0.999999
0.999999
0.999988
1.00026
1.01168
1.10838
1.46222
2.2236
2.95486
3.51141
3.67944
3.70285
3.71641
3.71854
3.71717
3.72566
3.73466
3.74616
3.75982
3.76671
3.76876
3.76765
3.76829
3.76884
3.7673
3.76664
3.76739
3.77017
3.7719
1
1
1
1
1
1
1
1
1
1
1
1
1
1
1
1
1
0.999998
0.999998
0.999985
1.00032
1.01376
1.10055
1.51651
2.20986
3.03343
3.5123
3.60021
3.68153
3.68271
3.69236
3.70666
3.71225
3.72094
3.73509
3.75018
3.76496
3.77499
3.77823
3.77933
3.7786
3.77868
3.77796
3.77573
3.77364
3.77332
3.7744
3.77525
1
1
1
1
1
1
1
1
1
1
1
1
1
1
1
0.999998
0.999998
0.99998
1.00049
1.01079
1.12139
1.57421
2.27122
3.11908
3.43298
3.6014
3.70547
3.75124
3.75258
3.73235
3.72809
3.73165
3.73807
3.74836
3.75929
3.76848
3.77622
3.78253
3.78601
3.78558
3.78388
3.7819
3.77804
3.77393
3.77194
3.77144
3.77172
3.77342
1
1
1
1
1
1
1
1
1
1
1
1
1
0.999998
0.999998
0.999972
1.00051
1.01182
1.15821
1.57591
2.43693
3.10373
3.53194
3.76468
3.79764
3.79479
3.762
3.74692
3.74373
3.74265
3.74253
3.74113
3.74616
3.7541
3.75952
3.76284
3.76547
3.77008
3.7769
3.77943
3.77911
3.77756
3.77513
3.77443
3.77381
3.77343
3.77344
3.77568
1
1
1
1
1
1
1
1
1
1
1
0.999998
0.999998
0.99997
1.00037
1.02196
1.18812
1.66637
2.53192
3.22195
3.7758
3.87544
3.8614
3.81746
3.77881
3.74486
3.7168
3.71005
3.71291
3.72312
3.73429
3.751
3.76002
3.7641
3.76245
3.76103
3.76089
3.76294
3.76939
3.77259
3.77285
3.77206
3.77125
3.77088
3.77061
3.77045
3.7697
3.77475
1
1
1
1
1
1
1
1
1
0.999997
0.999997
0.999953
1.00082
1.03124
1.20234
1.8409
2.67002
3.51272
3.88491
3.86616
3.85525
3.80689
3.75204
3.71791
3.69185
3.68454
3.68815
3.70201
3.72179
3.74212
3.75931
3.77153
3.77314
3.77317
3.77249
3.77157
3.76946
3.76887
3.77156
3.77425
3.77414
3.77223
3.76974
3.76693
3.76417
3.76296
3.76179
3.76737
1
1
1
1
1
1
1
0.999999
1
0.99992
1.00243
1.03881
1.30333
1.97325
2.86607
3.72855
3.90305
4.00423
3.98948
3.93285
3.81382
3.71737
3.67775
3.66967
3.67661
3.68475
3.70185
3.72598
3.74917
3.7686
3.7806
3.78256
3.78235
3.77917
3.77819
3.77822
3.77715
3.7767
3.77861
3.78186
3.78409
3.78351
3.78108
3.77681
3.77011
3.76549
3.76448
3.76594
1
1
1
1
0.999998
1
0.999992
1.00009
1.00545
1.07038
1.4389
2.11796
3.22615
3.74604
4.04378
4.02346
3.93549
3.90871
3.84994
3.78461
3.76839
3.73346
3.72267
3.72092
3.72604
3.73219
3.74485
3.75882
3.76699
3.77254
3.77645
3.77628
3.77526
3.77225
3.76999
3.76839
3.76663
3.76681
3.76961
3.77454
3.78021
3.78319
3.78261
3.7801
3.77523
3.76975
3.76869
3.77071
1
0.999977
1.00007
1.00007
1.00129
1.01343
1.06107
1.22258
1.6004
2.36033
3.30323
3.9305
4.31467
4.32243
4.24738
4.11264
3.97968
3.79713
3.6819
3.67788
3.69001
3.714
3.74072
3.7503
3.7527
3.74864
3.75015
3.75367
3.7559
3.75941
3.76391
3.76804
3.76828
3.76671
3.76394
3.76176
3.76158
3.76342
3.76708
3.77321
3.78127
3.78656
3.78734
3.78623
3.78312
3.77685
3.77123
3.77274
1.00197
1.01411
1.0766
1.20262
1.40873
1.76948
2.21454
2.75349
3.31871
3.73338
3.88465
4.06655
4.05738
3.96079
3.83856
3.78596
3.74555
3.69664
3.67282
3.66895
3.68107
3.70513
3.72676
3.73745
3.74097
3.74583
3.75217
3.75514
3.75742
3.76257
3.77004
3.77696
3.78082
3.78139
3.77912
3.77477
3.7711
3.77041
3.77172
3.774
3.77694
3.7791
3.77904
3.77798
3.77528
3.76979
3.7663
3.76766
1.28939
1.76042
2.31357
2.87729
3.58784
4.16035
4.65762
5.12193
5.3451
5.25148
4.91836
4.47401
4.09211
3.79707
3.6609
3.57493
3.55423
3.56934
3.60672
3.64823
3.68569
3.70452
3.71595
3.72726
3.74008
3.75227
3.76133
3.76704
3.77277
3.7827
3.79472
3.79958
3.79886
3.79493
3.78679
3.77712
3.77031
3.76698
3.76519
3.76512
3.7652
3.76756
3.76934
3.76952
3.76918
3.76834
3.76686
3.76764
2.64211
1.71421
1.18506
0.790259
0.64325
0.678333
0.726636
0.726909
0.769947
0.876031
0.948651
0.949923
0.964098
1.00818
1.02878
1.03552
1.04936
1.07844
1.082
1.07841
1.07334
1.06872
1.06138
1.05169
1.05139
1.05424
1.05389
1.04978
1.0424
1.03746
1.03704
1.03742
1.03918
1.04263
1.04523
1.04605
1.04645
1.04504
1.04248
1.04254
1.04399
1.04747
1.05117
1.05186
1.05181
1.05155
1.05037
1.04876
1.05023
1.09414
1.48404
2.32001
3.75954
5.6564
7.6869
9.24684
9.5259
8.96675
8.10571
7.39501
7.06154
6.98406
6.91566
6.86358
6.74715
6.62583
6.48218
6.2354
6.00695
5.9066
5.82465
5.75023
5.68534
5.60769
5.51435
5.34501
5.07127
4.90875
4.84915
4.80118
4.76845
4.72766
4.671
4.59838
4.45685
4.25013
4.14733
4.10243
4.06794
4.04262
4.00444
3.95738
3.88774
3.74031
3.55768
3.48729
3.4574
3.43261
3.42324
3.40435
3.37108
3.33052
3.25623
3.11823
2.99489
2.94233
2.91254
2.88914
2.8668
2.84116
2.80724
2.75036
2.66733
2.60557
2.57289
2.54666
2.52014
2.48956
2.4453
2.37358
2.30383
2.27547
2.25888
2.2429
2.22674
2.20875
2.18208
2.12341
2.02763
1.98276
1.96929
1.95698
1.94546
1.936
1.92316
1.90836
1.88819
1.84486
1.75765
1.69608
1.68085
1.67217
1.66408
1.65863
1.65105
1.6401
1.62689
1.60227
1.54302
1.47943
1.46187
1.4551
1.44824
1.43997
1.43072
1.42066
1.4081
1.38755
1.3498
1.31046
1.29463
1.28629
1.27737
1.26674
1.25274
1.23007
1.1971
1.1766
1.17066
1.16574
1.15957
1.15079
1.13453
1.10067
1.06337
1.04538
1.03446
1.02807
1.02361
1.0194
1.01486
1.00969
1.00381
0.992356
0.963411
0.928438
0.916244
0.91223
0.908918
0.905842
0.904975
0.897116
3.37142
2.70864
2.22226
1.8109
1.40101
1.26238
1.16076
1.02628
0.995117
0.98492
0.9344
0.900927
0.906752
0.929643
0.962275
0.981763
1.00043
1.03253
1.03706
1.034
1.03455
1.04332
1.04836
1.04956
1.05493
1.05718
1.05592
1.05028
1.04431
1.0427
1.04281
1.04334
1.04568
1.04869
1.0492
1.04929
1.04858
1.04587
1.04382
1.04338
1.04365
1.04532
1.04788
1.04937
1.04929
1.04827
1.04774
1.0526
1.10621
1.52777
2.37367
2.93298
3.33979
4.00741
4.78897
6.01355
7.14102
7.80317
7.91311
7.61797
7.28306
7.11087
6.96695
6.84222
6.74984
6.64817
6.5129
6.28198
6.0281
5.87868
5.80532
5.75602
5.71435
5.63599
5.53426
5.38228
5.14621
4.9436
4.86285
4.82235
4.79834
4.75359
4.69249
4.61269
4.48146
4.29794
4.1828
4.13495
4.09848
4.06637
4.02699
3.97589
3.90155
3.77694
3.61129
3.51599
3.48315
3.46386
3.448
3.42477
3.39169
3.34631
3.26572
3.14417
3.03426
2.97824
2.946
2.92101
2.89793
2.87071
2.83494
2.77876
2.70204
2.64123
2.60571
2.57805
2.55054
2.51913
2.47757
2.41458
2.33878
2.29955
2.28258
2.26643
2.24824
2.22599
2.1953
2.14367
2.06229
2.01094
1.99258
1.9787
1.96529
1.9531
1.93947
1.92288
1.89921
1.85648
1.78367
1.7266
1.70823
1.69683
1.68687
1.6775
1.66799
1.65603
1.63967
1.61256
1.56226
1.50395
1.48097
1.47277
1.466
1.45661
1.44562
1.43399
1.42076
1.40267
1.37285
1.33453
1.31118
1.29964
1.28953
1.27841
1.26505
1.24682
1.22002
1.19436
1.18319
1.1767
1.16942
1.1594
1.14394
1.11776
1.0836
1.06233
1.0516
1.04337
1.03793
1.03335
1.028
1.02158
1.0139
1.00224
0.979669
0.947775
0.930089
0.924325
0.920682
0.916977
0.914216
0.904879
3.66385
3.33511
2.8475
2.40916
1.97062
1.64924
1.45575
1.24928
1.07423
1.02903
0.971872
0.915072
0.916738
0.932304
0.944862
0.949076
0.959965
0.987177
0.999816
1.00324
1.01067
1.02755
1.03764
1.04122
1.04621
1.05062
1.05153
1.0501
1.04799
1.04793
1.04855
1.04983
1.05279
1.0535
1.05281
1.05056
1.04609
1.0429
1.04234
1.04229
1.04309
1.04501
1.04651
1.04765
1.04705
1.04848
1.06967
1.19569
1.59821
2.66989
3.18092
3.29225
3.2955
3.33456
3.45152
3.8712
5.02914
6.60275
7.63864
7.80294
7.59593
7.15027
6.83929
6.72763
6.6878
6.61043
6.46253
6.25974
6.06069
5.86859
5.73913
5.67216
5.62093
5.54844
5.45077
5.33862
5.21036
5.06135
4.9004
4.78706
4.72526
4.66802
4.60618
4.53082
4.433
4.33791
4.23561
4.11467
4.02861
3.98645
3.94614
3.89817
3.83157
3.74525
3.67207
3.59802
3.50353
3.4241
3.3833
3.34884
3.31333
3.26803
3.19697
3.11345
3.0676
3.02552
2.96273
2.89189
2.84841
2.81865
2.78607
2.73978
2.6787
2.62772
2.59141
2.56015
2.52958
2.4968
2.45733
2.40149
2.32831
2.26974
2.24223
2.2261
2.21171
2.1937
2.16742
2.13012
2.08162
2.01722
1.97041
1.94945
1.93222
1.91623
1.90237
1.88836
1.86819
1.83353
1.78799
1.74468
1.70684
1.68216
1.6666
1.65321
1.64108
1.63001
1.61586
1.59249
1.55938
1.52485
1.48664
1.45366
1.44007
1.43355
1.42453
1.41324
1.40018
1.38328
1.35761
1.32439
1.2994
1.28443
1.27237
1.2606
1.24757
1.23066
1.20834
1.18489
1.16848
1.15816
1.14998
1.14178
1.13053
1.11134
1.08301
1.05782
1.04467
1.03602
1.02681
1.02074
1.01654
1.01111
1.00325
0.991369
0.969569
0.939641
0.923477
0.914732
0.909548
0.905633
0.902643
0.893489
3.74975
3.62303
3.31232
2.923
2.49854
2.11098
1.8499
1.61291
1.36663
1.27452
1.19286
1.06263
1.02731
1.02015
0.987398
0.955749
0.954754
0.95287
0.946446
0.948001
0.956497
0.982173
1.01066
1.02354
1.03119
1.03931
1.04288
1.04303
1.0427
1.04508
1.05199
1.05955
1.06187
1.06176
1.0605
1.05628
1.04907
1.04607
1.04595
1.04651
1.04779
1.048
1.04774
1.04693
1.04872
1.07781
1.35615
1.92361
2.67167
3.36535
3.4381
3.38847
3.30506
3.27836
3.23403
3.20513
3.34464
4.0515
5.42108
6.94702
7.19286
7.02524
6.95829
6.85973
6.75295
6.61127
6.43488
6.2751
6.10322
5.92401
5.76612
5.64405
5.56437
5.47764
5.38903
5.31638
5.2533
5.14902
4.98279
4.81675
4.69657
4.61591
4.5441
4.48888
4.44435
4.38684
4.29217
4.15734
4.0321
3.94719
3.89148
3.84258
3.80398
3.77347
3.73323
3.66559
3.5573
3.44922
3.37197
3.31531
3.25802
3.20811
3.17517
3.15063
3.12085
3.07445
2.99745
2.90978
2.84152
2.79726
2.76053
2.72597
2.68891
2.64717
2.60819
2.57037
2.53313
2.49586
2.45443
2.4031
2.33582
2.27545
2.2386
2.21242
2.19271
2.17837
2.16515
2.14527
2.10654
2.03497
1.97427
1.9478
1.93034
1.91138
1.89143
1.87236
1.85598
1.83846
1.80995
1.76724
1.71952
1.68566
1.66551
1.65183
1.63738
1.62117
1.60631
1.59257
1.57442
1.54586
1.50171
1.45843
1.4334
1.42309
1.41674
1.40771
1.39531
1.37781
1.35276
1.3228
1.29869
1.28289
1.26971
1.25684
1.24374
1.22807
1.20704
1.18526
1.16918
1.15755
1.14655
1.13649
1.12736
1.11465
1.09054
1.06238
1.04715
1.03777
1.02821
1.02023
1.0154
1.01022
1.00197
0.989273
0.96838
0.938297
0.921277
0.914464
0.9092
0.904845
0.901578
0.892465
3.76043
3.73262
3.58546
3.31824
2.94102
2.54651
2.25837
1.97047
1.68666
1.53433
1.42112
1.2565
1.15797
1.11079
1.05058
0.978132
0.965383
0.957778
0.942464
0.943178
0.952517
0.965212
0.981364
0.993074
0.998681
1.00791
1.01633
1.02407
1.03132
1.03605
1.04725
1.05648
1.05776
1.05769
1.05631
1.05262
1.04961
1.0493
1.0504
1.05334
1.05399
1.05289
1.05026
1.05
1.0776
1.38833
2.26593
2.87028
3.30835
3.46379
3.46342
3.40778
3.31008
3.2474
3.21947
3.15886
3.09029
3.11359
3.38517
4.38436
5.74237
6.6791
7.01034
6.94117
6.74272
6.50066
6.32434
6.22225
6.11775
5.9932
5.83222
5.63434
5.47069
5.38804
5.33095
5.27867
5.20772
5.13031
5.02919
4.87065
4.69241
4.57942
4.51357
4.45126
4.39036
4.3314
4.26479
4.17665
4.05138
3.92653
3.8604
3.81659
3.77323
3.73168
3.69228
3.64337
3.57911
3.48046
3.35717
3.27285
3.22302
3.17949
3.14722
3.12006
3.09074
3.05769
3.01628
2.94084
2.849
2.78623
2.74239
2.69908
2.65508
2.6131
2.57341
2.54053
2.50948
2.47652
2.43852
2.39309
2.34153
2.28513
2.24255
2.2213
2.1991
2.17094
2.13859
2.10544
2.07238
2.03871
1.98923
1.94874
1.93161
1.91795
1.89963
1.87625
1.84702
1.81407
1.78534
1.75574
1.72754
1.70009
1.67117
1.64949
1.63729
1.6229
1.60409
1.58095
1.55665
1.53107
1.50507
1.48001
1.45115
1.42228
1.40814
1.39898
1.3869
1.36962
1.34593
1.32039
1.30065
1.28616
1.2727
1.25844
1.24333
1.22894
1.21416
1.19616
1.17955
1.1652
1.15158
1.13789
1.1228
1.10234
1.08204
1.07117
1.06162
1.05116
1.04137
1.03145
1.02354
1.0163
1.00674
0.993303
0.972293
0.940593
0.919511
0.91514
0.914112
0.910327
0.906666
0.897638
3.76673
3.75304
3.70409
3.5681
3.3077
2.93816
2.63113
2.34346
2.04582
1.843
1.68537
1.5001
1.36883
1.29425
1.21828
1.10753
1.07279
1.04557
0.999874
0.982048
0.985594
0.98295
0.969477
0.964553
0.964889
0.96719
0.975854
0.988947
1.00585
1.0224
1.03654
1.04903
1.05214
1.05258
1.05176
1.04921
1.0472
1.04778
1.05127
1.05488
1.05464
1.05356
1.05753
1.10762
1.43505
2.44103
3.06858
3.29725
3.43845
3.43576
3.36139
3.33164
3.31463
3.25333
3.19185
3.11814
3.04605
3.00004
2.97818
3.05476
3.52294
4.62778
5.77186
6.38922
6.42693
6.38972
6.3429
6.28995
6.17944
6.04003
5.85839
5.64498
5.43655
5.33789
5.28384
5.24234
5.18227
5.10725
5.02392
4.90804
4.7354
4.57533
4.48129
4.411
4.35321
4.30579
4.25683
4.19316
4.08794
3.94937
3.8379
3.78237
3.74242
3.70969
3.68226
3.6513
3.60404
3.50966
3.36359
3.24294
3.19038
3.16154
3.13705
3.11609
3.09211
3.06131
3.01344
2.94466
2.85458
2.7734
2.72546
2.68938
2.65265
2.61407
2.56897
2.52569
2.49182
2.46263
2.43543
2.40607
2.36847
2.32043
2.26716
2.21904
2.18581
2.15606
2.12364
2.08967
2.05612
2.02447
1.9961
1.96806
1.93533
1.90225
1.87969
1.85893
1.83216
1.80004
1.77613
1.76507
1.75331
1.73224
1.70168
1.66671
1.63219
1.60613
1.585
1.56604
1.5486
1.53481
1.52399
1.50625
1.47443
1.43084
1.39882
1.38592
1.37619
1.36428
1.34739
1.32627
1.30796
1.29386
1.2801
1.26418
1.24768
1.22876
1.20404
1.18015
1.16373
1.15118
1.13895
1.12688
1.11394
1.09763
1.08361
1.072
1.0581
1.04146
1.03007
1.02348
1.01644
1.00981
1.00191
0.989895
0.970126
0.94444
0.927624
0.918691
0.908153
0.900158
0.895566
0.88626
3.77551
3.77101
3.75907
3.69704
3.53745
3.27482
2.99303
2.67571
2.38068
2.16014
1.96806
1.75798
1.60462
1.49292
1.38507
1.26017
1.1988
1.15277
1.08562
1.02482
1.01671
1.0009
0.975733
0.970621
0.969599
0.967675