/*--------------------------------*- C++ -*----------------------------------*\
  =========                 |
  \\      /  F ield         | OpenFOAM: The Open Source CFD Toolbox
   \\    /   O peration     | Website:  https://openfoam.org
    \\  /    A nd           | Version:  7
     \\/     M anipulation  |
\*---------------------------------------------------------------------------*/
FoamFile
{
    version     2.0;
    format      ascii;
    class       volScalarField;
    location    "1";
    object      T;
}
// * * * * * * * * * * * * * * * * * * * * * * * * * * * * * * * * * * * * * //

dimensions      [0 0 0 1 0 0 0];

internalField   nonuniform List<scalar> 
18432
(
1
1
1
1
1
1
1
1
1
1
1
1
1
1
1
1
1
1
1
1
1
1
1
1
1
1
1
1
1
1
1
1
1
1
1
1
1
1
1
1
1
1
1
1
1
1
1
1
1
1
1
1
1
1
1
1
1
1
1
1
1
1
1
1
1
1
1
1
1
1
1
1
1
1
1
1
1
1
1
1
1
1
1
1
1
1
1
1
1
1
1
1
1
1
1
1
1
1
1
1
1
1
1
1
1
1
1
1
1
1
1
1
1
1
1
1
1
1
1
1
1
1
1
1
1
1
1
1
1
1
1
1
1
1
1
1
1
1
1
1
1
1
1
1
1
1
1
1
1
1
1
1
1
1
1
1
1
1
1
1
1
1
1
1
1
1
1
1
1
1
1
1
1
1
1
1
1
1
1
1
1
1
1
1
1
1
1
1
1
1
1
1
1
1
1
1
1
1
1
1
1
1
1
1
1
1
1
1
1
1
1
1
1
1
1
1
1
1
1
1
1
1
1
1
1
1
1
1
1
1
1
1
1
1
1
1
1
1
1
1
1
1
1
1
1
1
1
1
1
1
1
1
1
1
1
1
1
1
1
1
1
1
1
1
1
1
1
1
1
1
1
1
1
1
1
1
1
1
1
1
1
1
1
1
1
1
1
1
1
1
1
1
1
1
1
1
1
1
1
1
1
1
1
1
1
1
1
1
1
1
1
1
1
1
1
1
1
1
1
1
1
1
1
1
1
1
1
1
1
1
1
1
1
1
1
1
1
1
1
1
1
1
1
1
1
1
1
1
1
1
1
1
1
1
1
1
1
1
1
1
1
1
1
1
1
1
1
1
1
1
1
1
1
1
1
1
1
1
1
1
1
1
1
1
1
1
1
1
1
1
1
1
1
1
1
1
1
1
1
1
1
1
1
1
1
1
1
1
1
1
1
1
1
1
1
1
1
1
1
1
1
1
1
1
1
1
1
1
1
1
1
1
1
1
1
1
1
1
1
1
1
1
1
1
1
1
1
1
1
1
1
1
1
1
1
1
1
1
1
1
1
1
1
1
1
1
1
1
1
1
1
1
1
1
1
1
1
1
1
1
1
1
1
1
1
1
1
1
1
1
1
1
1
1
1
1
1
1
1
1
1
1
1
1
1
1
1
1
1
1
1
1
1
1
1
1
1
1
1
1
1
1
1
1
1
1
1
1
1
1
1
1
1
1
1
1
1
1
1
1
1
1
1
1
1
1
1
1
1
1
1
1
1
1
1
1
1
1
1
1
1
1
1
1
1
1
1
1
1
1
1
1
1
1
1
1
1
1
1
1
1
1
1
1
1
1
1
1
1
1
1
1
1
1
1
1
1
1
1
1
1
1
1
1
1
1
1
1
1
1
1
1
1
1
1
1
1
1
1
1
1
1
1
1
1
1
1
1
1
1
1
1
1
1
1
1
1
1
1
1
1
1
1
1
1
1
1
1
1
1
1
1
1
1
1
1
1
1
1
1
1
1
1
1
1
1
1
1
1
1
1
1
1
1
1
1
1
1
1
1
1
1
1
1
1
1
1
1
1
1
1
1
1
1
1
1
1
1
1
1
1
1
1
1
1
1
1
1
1
1
1
1
1
1
1
1
1
1
1
1
1
1
1
1
1
1
1
1
1
1
1
1
1
1
1
1
1
1
1
1
1
1
1
1
1
1
1
1
1
1
1
1
1
1
1
1
1
1
1
1
1
1
1
1
1
1
1
1
1
1
1
1
1
1
1
1
1
1
1
1
1
1
1
1
1
1
1
1
1
1
1
1
1
1
1
1
1
1
1
1
1
1
1
1
1
1
1
1
1
1
1
1
1
1
1
1
1
1
1
1
1
1
1
1
1
1
1
1
1
1
1
1
1
1
1
1
1
1
1
1
1
1
1
1
1
1
1
1
1
1
1
1
1
1
1
1
1
1
1
1
1
1
1
1
1
1
1
1
1
1
1
1
1
1
1
1
1
1
1
1
1
1
1
1
1
1
1
1
1
1
1
1
1
1
1
1
1
1
1
1
1
1
1
1
1
1
1
1
1
1
1
1
1
1
1
1
1
1
1
1
1
1
1
1
1
1
1
1
1
1
1
1
1
1
1
1
1
1
1
1
1
1
1
1
1
1
1
1
1
1
1
1
1
1
1
1
1
1
1
1
1
1
1
1
1
1
1
1
1
1
1
1
1
1
1
1
1
1
1
1
1
1
1
1
1
1
1
1
1
1
1
1
1
1
1
1
1
1
1
1
1
1
1
1
1
1
1
1
1
1
1
1
1
1
1
1
1
1
1
1
1
1
1
1
1
1
1
1
1
1
1
1
1
1
1
1
1
1
1
1
1
1
1
1
1
1
1
1
1
1
1
1
1
1
1
1
1
1
1
1
1
1
1
1
1
1
1
1
1
1
1
1
1
1
1
1
1
1
1
1
1
1
1
1
1
1
1
1
1
1
1
1
1
1
1
1
1
1
1
1
1
1
1
1
1
1
1
1
1
1
1
1
1
1
1
1
1
1
1
1
1
1
1
1
1
1
1
1
1
1
1
1
1
1
1
1
1
1
1
1
1
1
1
1
1
1
1
1
1
1
1
1
1
1
1
1
1
1
1
1
1
1
1
1
1
1
1
1
1
1
1
1
1
1
1
1
1
1
1
1
1
1
1
1
1
1
1
1
1
1
1
1
1
1
1
1
1
1
1
1
1
1
1
1
1
1
1
1
1
1
1
1
1
1
1
1
1
1
1
1
1
1
1
1
1
1
1
1
1
1
1
1
1
1
1
1
1
1
1
1
1
1
1
1
1
1
1
1
1
1
1
1
1
1
1
1
1
1
1
1
1
1
1
1
1
1
1
1
1
1
1
1
1
1
1
1
1
1
1
1
1
1
1
1
1
1
1
1
1
1
1
1
1
1
1
1
1
1
1
1
1
1
1
1
1
1
1
1
1
1
1
1
1
1
1
1
1
1
1
1
1
1
1
1
1
1
1
1
1
1
1
1
1
1
1
1
1
1
1
1
1
1
1
1
1
1
1
1
1
1
1
1
1
1
1
1
1
1
1
1
1
1
1
1
1
1
1
1
1
1
1
1
1
1
1
1
1
1
1
1
1
1
1
1
1
1
1
1
1
1
1
1
1
1
1
1
1
1
1
1
1
1
1
1
1
1
1
1
1
1
1
1
1
1
1
1
1
1
1
1
1
1
1
1
1
1
1
1
1
1
1
1
1
1
1
1
1
1
1
1
1
1
1
1
1
1
1
1
1
1
1
1
1
1
1
1
1
1
1
1
1
1
1
1
1
1
1
1
1
1
1
1
1
1
1
1
1
1
1
1
1
1
1
1
1
1
1
1
1
1
1
1
1
1
1
1
1
1
1
1
1
1
1
1
1
1
1
1
1
1
1
1
1
1
1
1
1
1
1
1
1
1
1
1
1
1
1
1
1
1
1
1
1
1
1
1
1
1
1
1
1
1
1
1
1
1
1
1
1
1
1
1
1
1
1
1
1
1
1
1
1
1
1
1
1
1
1
1
1
1
1
1
1
1
1
1
1
1
1
1
1
1
1
1
1
1
1
1
1
1
1
1
1
1
1
1
1
1
1
1
1
1
1
1
1
1
1
1
1
1
1
1
1
1
1
1
1
1
1
1
1
1
1
1
1
1
1
1
1
1
1
1
1
1
1
1
1
1
1
1
1
1
1
1
1
1
1
1
1
1
1
1
1
1
1
1
1
1
1
1
1
1
1
1
1
1
1
1
1
1
1
1
1
1
1
1
1
1
1
1
1
1
1
1
1
1
1
1
1
1
1
1
1
1
1
1
1
1
1
1
1
1
1
1
1
1
1
1
1
1
1
1
1
1
1
1
1
1
1
1
1
1
1
1
1
1
1
1
1
1
1
1
1
1
1
1
1
1
1
1
1
1
1
1
1
1
1
1
1
1
1
1
1
1
1
1
1
1
1
1
1
1
1
1
1
1
1
1
1
1
1
1
1
1
1
1
1
1
1
1
1
1
1
1
1
1
1
1
1
1
1
1
1
1
1
1
1
1
1
1
1
1
1
1
1
1
1
1
1
1
1
1
1
1
1
1
1
1
1
1
1
1
1
1
1
1
1
1
1
1
1
1
1
1
1
1
1
1
1
1
1
1
1
1
1
1
1
1
1
1
1
1
1
1
1
1
1
1
1
1
1
1
1
1
1
1
1
1
1
1
1
1
1
1
1
1
1
1
1
1
1
1
1
1
1
1
1
1
1
1
1
1
1
1
1
1
1
1
1
1
1
1
1
1
1
1
1
1
1
1
1
1
1
1
1
1
1
1
1
1
1
1
1
1
1
1
1
1
1
1
1
1
1
1
1
1
1
1
1
1
1
1
1
1
1
1
1
1
1
1
1
1
1
1
1
1
1
1
1
1
1
1
1
1
1
1
1
1
1
1
1
1
1
1
1
1
1
1
1
1
1
1
1
1
1
1
1
1
1
1
1
1
1
1
1
1
1
1
1
1
1
1
1
1
1
1
1
1
1
1
1
1
1
1
1
1
1
1
1
1
1
1
1
1
1
1
1
1
1
1
1
1
1
1
1
1
1
1
1
1
1
1
1
1
1
1
1
1
1
1
1
1
1
1
1
1
1
1
1
1
1
1
1
1
1
1
1
1
1
1
1
1
1
1
1
1
1
1
1
1
1
1
1
1
1
1
1
1
1
1
1
1
1
1
1
1
1
1
1
1
1
1
1
1
1
1
1
1
1
1
1
1
1
1
1
1
1
1
1
1
1
1
1
1
1
1
1
1
1
1
1
1
1
1
1
1
1
1
1
1
1
1
1
1
1
1
1
1
1
1
1
1
1
1
1
1
1
1
1
1
1
1
1
1
1
1
1
1
1
1
1
1
1
1
1
1
1
1
1
1
1
1
1
1
1
1
1
1
1
1
1
1
1
1
1
1
1
1
1
1
1
1
1
1
1
1
1
1
1
1
1
1
1
1
1
1
1
1
1
1
1
1
1
1
1
1
1
1
1
1
1
1
1
1
1
1
1
1
1
1
1
1
1
1
1
1
1
1
1
1
1
1
1
1
1
1
1
1
1
1
1
1
1
1
1
1
1
1
1
1
1
1
1
1
1
1
1
1
1
1
1
1
1
1
1
1
1
1
1
1
1
1
1
1
1
1
1
1
1
1
1
1
1
1
1
1
1
1
1
1
1
1
1
1
1
1
1
1
1
1
1
1
1
1
1
1
1
1
1
1
1
1
1
1
1
1
1
1
1
1
1
1
1
1
1
1
1
1
1
1
1
1
1
1
1
1
1
1
1
1
1
1
1
1
1
1
1
1
1
1
1
1
1
1
1
1
1
1
1
1
1
1
1
1
1
1
1
1
1
1
1
1
1
1
1
1
1
1
1
1
1
1
1
1
1
1
1
1
1
1
1
1
1
1
1
1
1
1
1
1
1
1
1
1
1
1
1
1
1
1
1
1
1
1
1
1
1
1
1
1
1
1
1
1
1
1
1
1
1
1
1
1
1
1
1
1
1
1
1
1
1
1
1
1
1
1
1
1
1
1
1
1
1
1
1
1
1
1
1
1
1
1
1
1
1
1
1
1
1
1
1
1
1
1
1
1
1
1
1
1
1
1
1
1
1
1
1
1
1
1
1
1
1
1
1
1
1
1
1
1
1
1
1
1
1
1
1
1
1
1
1
1
1
1
1
1
1
1
1
1
1
1
1
1
1
1
1
1
1
1
1
1
1
1
1
1
1
1
1
1
1
1
1
1
1
1
1
1
1
1
1
1
1
1
1
1
1
1
1
1
1
1
1
1
1
1
1
1
1
1
1
1
1
1
1
1
1
1
1
1
1
1
1
1
1
1
1
1
1
1
1
1
1
1
1
1
1
1
1
1
1
1
1
1
1
1
1
1
1
1
1
1
1
1
1
1
1
1
1
1
1
1
1
1
1
1
1
1
1
1
1
1
1
1
1
1
1
1
1
1
1
1
1
1
1
1
1
1
1
1
1
1
1
1
1
1
1
1
1
1
1
1
1
1
1
1
1
1
1
1
1
1
1
1
1
1
1
1
1
1
1
1
1
1
1
1
1
1
1
1
1
1
1
1
1
1
1
1
1
1
1
1
1
1
1
1
1
1
1
1
1
1
1
1
1
1
1
1
1
1
1
1
1
1
1
1
1
1
1
1
1
1
1
1
1
1
1
1
1
1
1
1
1
1
1
1
1
1
1
1
1
1
1
1
1
1
1
1
1
1
1
1
1
1
1
1
1
1
1
1
1
1
1
1
1
1
1
1
1
1
1
1
1
1
1
1
1
1
1
1
1
1
1
1
1
1
1
1
1
1
1
1
1
1
1
1
1
1
1
1
1
1
1
1
1
1
1
1
1
1
1
1
1
1
1
1
1
1
1
1
1
1
1
1
1
1
1
1
1
1
1
1
1
1
1
1
1
1
1
1
1
1
1
1
1
1
1
1
1
1
1
1
1
1
1
1
1
1
1
1
1
1
1
1
1
1
1
1
1
1
1
1
1
1
1
1
1
1
1
1
1
1
1
1
1
1
1
1
1
1
1
1
1
1
1
1
1
1
1
1
1
1
1
1
1
1
1
1
1
1
1
1
1
1
1
1
1
1
1
1
1
1
1
1
1
1
1
1
1
1
1
1
1
1
1
1
1
1
1
1
1
1
1
1
1
1
1
1
1
1
1
1
1
1
1
1
1
1
1
1
1
1
1
1
1
1
1
1
1
1
1
1
1
1
1
1
1
1
1
1
1
1
1
1
1
1
1
1
1
1
1
1
1
1
1
1
1
1
1
1
1
1
1
1
1
1
1
1
1
1
1
1
1
1
1
1
1
1
1
1
1
1
1
1
1
1
1
1
1
1
1
1
1
1
1
1
1
1
1
1
1
1
1.07776
1.18174
1.28439
1.37633
1.47898
1.55687
1.61885
1.67063
1.69575
1.68928
1.65883
1.61346
1.57353
1.54087
1.52568
1.51308
1.51264
1.51498
1.52029
1.52583
1.53028
1.53225
1.53362
1.5354
1.53771
1.53993
1.54132
1.54187
1.54241
1.5438
1.54581
1.54671
1.54679
1.54666
1.54588
1.54472
1.54403
1.54391
1.54397
1.54429
1.54455
1.54497
1.54523
1.54536
1.54544
1.54548
1.54547
1.54568
1.00063
1.00472
1.02644
1.06821
1.12838
1.21654
1.29934
1.3794
1.45213
1.50616
1.52775
1.56011
1.56908
1.56318
1.55283
1.54584
1.54057
1.53502
1.53366
1.5333
1.53465
1.53715
1.53942
1.54089
1.54185
1.54297
1.54403
1.54416
1.54423
1.54481
1.54593
1.54703
1.5477
1.54785
1.54761
1.54701
1.54656
1.54653
1.54686
1.54739
1.54788
1.5481
1.54807
1.54792
1.54762
1.54707
1.54675
1.54725
1
0.999992
1.00002
1.00002
1.00045
1.00467
1.02126
1.07484
1.18223
1.34688
1.49877
1.58311
1.62561
1.62375
1.61288
1.59659
1.58104
1.55984
1.54783
1.54718
1.54852
1.551
1.55349
1.55391
1.55416
1.5538
1.55416
1.55433
1.55411
1.55398
1.55404
1.5545
1.55447
1.55417
1.55365
1.55297
1.55258
1.55255
1.5528
1.55348
1.5543
1.55463
1.55448
1.554
1.55336
1.55259
1.55183
1.55274
1
1
1
1
0.999999
1
0.999996
1.00003
1.00197
1.02695
1.15682
1.32968
1.51637
1.57847
1.60833
1.60482
1.59357
1.59096
1.58471
1.57737
1.57487
1.57015
1.56789
1.56626
1.56607
1.56638
1.56767
1.56908
1.56935
1.56912
1.56864
1.56811
1.56765
1.56691
1.56616
1.56526
1.56416
1.56355
1.56351
1.56373
1.564
1.56389
1.56323
1.56217
1.56103
1.56017
1.55968
1.56064
1
1
1
1
1
1
1
1
1
0.999969
1.00089
1.01498
1.11261
1.29572
1.46366
1.58644
1.60715
1.61693
1.61429
1.6066
1.59168
1.57949
1.57354
1.57157
1.5718
1.57228
1.57408
1.57638
1.57809
1.57925
1.57995
1.57997
1.57978
1.57898
1.5782
1.57729
1.57614
1.5754
1.57531
1.57537
1.57526
1.57458
1.57341
1.57196
1.57052
1.5696
1.56893
1.56974
1
1
1
1
1
1
1
1
1
0.999999
0.999999
0.999981
1.00029
1.01167
1.07608
1.26302
1.43096
1.55917
1.60342
1.59918
1.59776
1.59204
1.58488
1.58113
1.57909
1.57768
1.57741
1.57796
1.57923
1.58112
1.58339
1.58495
1.58481
1.58432
1.5835
1.58262
1.58184
1.58159
1.58171
1.58174
1.58142
1.58056
1.57951
1.57852
1.57772
1.57728
1.57667
1.57763
1
1
1
1
1
1
1
1
1
1
1
0.999999
0.999999
0.999988
1.00012
1.00796
1.06983
1.21458
1.39811
1.50798
1.58487
1.59748
1.59612
1.59223
1.58854
1.58373
1.57874
1.57809
1.57856
1.58007
1.58174
1.58369
1.58443
1.58425
1.58354
1.58306
1.58305
1.5834
1.5841
1.5842
1.58395
1.58335
1.58281
1.58252
1.58232
1.58217
1.5818
1.58241
1
1
1
1
1
1
1
1
1
1
1
1
1
0.999999
0.999999
0.999989
1.00016
1.00421
1.05748
1.18772
1.37387
1.4835
1.54695
1.58016
1.58367
1.58332
1.57996
1.57916
1.5791
1.57912
1.57938
1.57942
1.58021
1.58122
1.58173
1.58218
1.58276
1.58364
1.58454
1.58473
1.58456
1.58403
1.58356
1.58354
1.58352
1.58344
1.58335
1.58349
1
1
1
1
1
1
1
1
1
1
1
1
1
1
1
0.999999
0.999999
0.999993
1.00016
1.00378
1.04358
1.18499
1.339
1.47932
1.52485
1.55025
1.56644
1.57383
1.57423
1.57233
1.57287
1.57377
1.57489
1.57643
1.57808
1.57966
1.58114
1.5824
1.58312
1.58318
1.58311
1.58297
1.58271
1.58254
1.58256
1.58263
1.58272
1.58278
1
1
1
1
1
1
1
1
1
1
1
1
1
1
1
1
1
0.999999
0.999999
0.999994
1.0001
1.00477
1.03592
1.16595
1.3247
1.46147
1.53099
1.5449
1.55748
1.55983
1.56239
1.56461
1.56565
1.5672
1.56964
1.57231
1.57469
1.57636
1.57738
1.57803
1.57846
1.57906
1.57959
1.57992
1.58022
1.58057
1.58114
1.58114
1
1
1
1
1
1
1
1
1
1
1
1
1
1
1
1
1
1
1
1
1
0.999995
1.00008
1.00398
1.03846
1.14854
1.3239
1.44952
1.52851
1.55071
1.55412
1.55753
1.55937
1.56054
1.56242
1.56396
1.56571
1.56781
1.56971
1.571
1.57178
1.5727
1.5735
1.57402
1.57471
1.57549
1.57673
1.57706
1
1
1
1
1
1
1
1
1
1
1
1
1
1
1
1
1
1
1
1
1
1
1
0.999996
1.00013
1.00313
1.04519
1.15566
1.327
1.44392
1.51822
1.54821
1.557
1.55967
1.5625
1.56226
1.56213
1.56327
1.56533
1.56663
1.56735
1.56765
1.56774
1.56804
1.56895
1.57005
1.57158
1.57204
1
1
1
1
1
1
1
1
1
1
1
1
1
1
1
1
1
1
1
1
1
1
1
0.999999
1
0.999996
1.00027
1.00394
1.04562
1.17711
1.34093
1.45548
1.50947
1.54125
1.55475
1.55593
1.55662
1.55878
1.56069
1.56212
1.56304
1.5631
1.56328
1.56382
1.56472
1.56589
1.56749
1.56777
1
1
1
1
1
1
1
1
1
1
1
1
1
1
1
1
1
1
1
1
1
1
1
1
1
0.999999
1
0.999997
1.00034
1.00679
1.05168
1.20232
1.36298
1.48976
1.52125
1.53446
1.5431
1.54989
1.55269
1.55438
1.55602
1.55761
1.55877
1.55961
1.56057
1.5615
1.56319
1.56333
1
1
1
1
1
1
1
1
1
1
1
1
1
1
1
1
1
1
1
1
1
1
1
1
1
1
1
1
1
1
1.00046
1.01223
1.07241
1.24202
1.39919
1.5076
1.54261
1.54474
1.54782
1.54969
1.55144
1.55313
1.55437
1.55526
1.55649
1.55811
1.55974
1.55983
1
1
1
1
1
1
1
1
1
1
1
1
1
1
1
1
1
1
1
1
1
1
1
1
1
1
1
1
1
1
0.999999
1.00003
1.001
1.0214
1.11184
1.29589
1.43963
1.51871
1.55132
1.55418
1.5569
1.55788
1.55751
1.55664
1.55666
1.55743
1.55804
1.55796
1
1
1
1
1
1
1
1
1
1
1
1
1
1
1
1
1
1
1
1
1
1
1
1
1
1
1
1
1
1
1
1
0.999999
1.00012
1.00269
1.04139
1.17663
1.36037
1.47214
1.52347
1.55201
1.55616
1.55521
1.55611
1.55722
1.55804
1.5584
1.55814
1
1
1
1
1
1
1
1
1
1
1
1
1
1
1
1
1
1
1
1
1
1
1
1
1
1
1
1
1
1
1
1
1
1
1
1.0005
1.00855
1.07886
1.25474
1.43729
1.51816
1.532
1.54112
1.54895
1.55352
1.55552
1.55619
1.55608
1
1
1
1
1
1
1
1
1
1
1
1
1
1
1
1
1
1
1
1
1
1
1
1
1
1
1
1
1
1
1
1
1
1
1
0.999999
1.00002
1.00199
1.02838
1.15689
1.34917
1.49101
1.54722
1.55006
1.55336
1.55461
1.55406
1.55399
1
1
1
1
1
1
1
1
1
1
1
1
1
1
1
1
1
1
1
1
1
1
1
1
1
1
1
1
1
1
1
1
1
1
1
1
1
1
1.00025
1.00853
1.08016
1.26365
1.43911
1.52507
1.55791
1.56049
1.55958
1.55857
1
1
1
1
1
1
1
1
1
1
1
1
1
1
1
1
1
1
1
1
1
1
1
1
1
1
1
1
1
1
1
1
1
1
1
1
1
1
1
1.00004
1.00191
1.03496
1.18627
1.39023
1.49515
1.53201
1.55543
1.55702
1
1
1
1
1
1
1
1
1
1
1
1
1
1
1
1
1
1
1
1
1
1
1
1
1
1
1
1
1
1
1
1
1
1
1
1
1
1
1
1
1
1.0006
1.01293
1.11418
1.31264
1.48915
1.53729
1.54528
1
1
1
1
1
1
1
1
1
1
1
1
1
1
1
1
1
1
1
1
1
1
1
1
1
1
1
1
1
1
1
1
1
1
1
1
1
1
1
1
1
1
1.00009
1.00563
1.05942
1.2603
1.44495
1.54127
1
1
1
1
1
1
1
1
1
1
1
1
1
1
1
1
1
1
1
1
1
1
1
1
1
1
1
1
1
1
1
1
1
1
1
1
1
1
1
1
1
1
1
1.00003
1.00152
1.03976
1.19831
1.4179
1
1
1
1
1
1
1
1
1
1
1
1
1
1
1
1
1
1
1
1
1
1
1
1
1
1
1
1
1
1
1
1
1
1
1
1
1
1
1
1
1
1
1
1
1
1.00097
1.01859
1.14067
1
1
1
1
1
1
1
1
1
1
1
1
1
1
1
1
1
1
1
1
1
1
1
1
1
1
1
1
1
1
1
1
1
1
1
1
1
1
1
1
1
1
1
1
1
1
1.00026
1.00707
1
1
1
1
1
1
1
1
1
1
1
1
1
1
1
1
1
1
1
1
1
1
1
1
1
1
1
1
1
1
1
1
1
1
1
1
1
1
1
1
1
1
1
1
1
1
1
0.999932
1
1
1
1
1
1
1
1
1
1
1
1
1
1
1
1
1
1
1
1
1
1
1
1
1
1
1
1
1
1
1
1
1
1
1
1
1
1
1
1
1
1
1
1
1
1
1
0.999978
1
1
1
1
1
1
1
1
1
1
1
1
1
1
1
1
1
1
1
1
1
1
1
1
1
1
1
1
1
1
1
1
1
1
1
1
1
1
1
1
1
1
1
1
1
1
1
0.999997
1
1
1
1
1
1
1
1
1
1
1
1
1
1
1
1
1
1
1
1
1
1
1
1
1
1
1
1
1
1
1
1
1
1
1
1
1
1
1
1
1
1
1
1
1
1
1
1
1
1
1
1
1
1
1
1
1
1
1
1
1
1
1
1
1
1
1
1
1
1
1
1
1
1
1
1
1
1
1
1
1
1
1
1
1
1
1
1
1
1
1
1
1
1
1
1
1
1
1
1
1
1
1
1
1
1
1
1
1
1
1
1
1
1
1
1
1
1
1
1
1
1
1
1
1
1
1
1
1
1
1
1
1
1
1
1
1
1
1
1
1
1
1
1
1
1
1
1
1
1
1
1
1
1
1
1
1
1
1
1
1
1
1
1
1
1
1
1
1
1
1
1
1
1
1
1
1
1
1
1
1
1
1
1
1
1
1
1
1
1
1
1
1
1
1
1
1
1
1
1
1
1
1
1
1
1
1
1
1
1
1
1
1
1
1
1
1
1
1
1
1
1
1
1
1
1
1
1
1
1
1
1
1
1
1
1
1
1
1
1
1
1
1
1
1
1
1
1
1
1
1
1
1
1
1
1
1
1
1
1
1
1
1
1
1
1
1
1
1
1
1
1
1
1
1
1
1
1
1
1
1
1
1
1
1
1
1
1
1
1
1
1
1
1
1
1
1
1
1
1
1
1
1
1
1
1
1
1
1
1
1
1
1
1
1
1
1
1
1
1
1
1
1
1
1
1
1
1
1
1
1
1
1
1
1
0.999997
1
1
1
1
1
1
1
1
1
1
1
1
1
1
1
1
1
1
1
1
1
1
1
1
1
1
1
1
1
1
1
1
1
1
1
1
1
1
1
1
1
1
1
1
1
1
1
0.999978
1
1
1
1
1
1
1
1
1
1
1
1
1
1
1
1
1
1
1
1
1
1
1
1
1
1
1
1
1
1
1
1
1
1
1
1
1
1
1
1
1
1
1
1
1
1
1
0.999931
1
1
1
1
1
1
1
1
1
1
1
1
1
1
1
1
1
1
1
1
1
1
1
1
1
1
1
1
1
1
1
1
1
1
1
1
1
1
1
1
1
1
1
1
1
1
1.00026
1.00703
1
1
1
1
1
1
1
1
1
1
1
1
1
1
1
1
1
1
1
1
1
1
1
1
1
1
1
1
1
1
1
1
1
1
1
1
1
1
1
1
1
1
1
1
1
1.00097
1.01859
1.1407
1
1
1
1
1
1
1
1
1
1
1
1
1
1
1
1
1
1
1
1
1
1
1
1
1
1
1
1
1
1
1
1
1
1
1
1
1
1
1
1
1
1
1
1.00003
1.00152
1.03978
1.19822
1.41823
1
1
1
1
1
1
1
1
1
1
1
1
1
1
1
1
1
1
1
1
1
1
1
1
1
1
1
1
1
1
1
1
1
1
1
1
1
1
1
1
1
1
1.00009
1.00563
1.05942
1.26028
1.44494
1.54139
1
1
1
1
1
1
1
1
1
1
1
1
1
1
1
1
1
1
1
1
1
1
1
1
1
1
1
1
1
1
1
1
1
1
1
1
1
1
1
1
1
1.0006
1.01292
1.11418
1.31264
1.48913
1.5373
1.54529
1
1
1
1
1
1
1
1
1
1
1
1
1
1
1
1
1
1
1
1
1
1
1
1
1
1
1
1
1
1
1
1
1
1
1
1
1
1
1
1.00004
1.00191
1.03496
1.18627
1.39024
1.49514
1.53201
1.55543
1.55702
1
1
1
1
1
1
1
1
1
1
1
1
1
1
1
1
1
1
1
1
1
1
1
1
1
1
1
1
1
1
1
1
1
1
1
1
1
1
1.00025
1.00853
1.08016
1.26365
1.43911
1.52507
1.55791
1.56049
1.55959
1.55857
1
1
1
1
1
1
1
1
1
1
1
1
1
1
1
1
1
1
1
1
1
1
1
1
1
1
1
1
1
1
1
1
1
1
1
0.999999
1.00002
1.00199
1.02838
1.15689
1.34917
1.49101
1.54722
1.55006
1.55336
1.55461
1.55406
1.55399
1
1
1
1
1
1
1
1
1
1
1
1
1
1
1
1
1
1
1
1
1
1
1
1
1
1
1
1
1
1
1
1
1
1
1
1.0005
1.00855
1.07886
1.25473
1.43729
1.51816
1.532
1.54112
1.54895
1.55352
1.55552
1.55619
1.55608
1
1
1
1
1
1
1
1
1
1
1
1
1
1
1
1
1
1
1
1
1
1
1
1
1
1
1
1
1
1
1
1
0.999999
1.00012
1.00269
1.04139
1.17663
1.36037
1.47215
1.52347
1.55201
1.55616
1.55521
1.55611
1.55722
1.55804
1.5584
1.55814
1
1
1
1
1
1
1
1
1
1
1
1
1
1
1
1
1
1
1
1
1
1
1
1
1
1
1
1
1
1
0.999999
1.00003
1.001
1.0214
1.11184
1.29589
1.43963
1.51871
1.55132
1.55418
1.5569
1.55788
1.55751
1.55664
1.55666
1.55743
1.55804
1.55796
1
1
1
1
1
1
1
1
1
1
1
1
1
1
1
1
1
1
1
1
1
1
1
1
1
1
1
1
1
1
1.00046
1.01223
1.07241
1.24202
1.39919
1.5076
1.54261
1.54474
1.54782
1.54969
1.55144
1.55313
1.55437
1.55526
1.55649
1.55811
1.55974
1.55983
1
1
1
1
1
1
1
1
1
1
1
1
1
1
1
1
1
1
1
1
1
1
1
1
1
0.999999
1
0.999997
1.00034
1.00679
1.05168
1.20232
1.36298
1.48976
1.52125
1.53446
1.5431
1.54989
1.55269
1.55438
1.55602
1.55761
1.55877
1.55961
1.56057
1.5615
1.56319
1.56333
1
1
1
1
1
1
1
1
1
1
1
1
1
1
1
1
1
1
1
1
1
1
1
0.999999
1
0.999996
1.00027
1.00394
1.04561
1.17711
1.34093
1.45548
1.50947
1.54125
1.55475
1.55593
1.55662
1.55878
1.56069
1.56212
1.56304
1.5631
1.56328
1.56382
1.56472
1.56589
1.56749
1.56777
1
1
1
1
1
1
1
1
1
1
1
1
1
1
1
1
1
1
1
1
1
1
1
0.999996
1.00013
1.00313
1.04519
1.15566
1.327
1.44392
1.51822
1.54821
1.557
1.55967
1.5625
1.56226
1.56213
1.56327
1.56533
1.56663
1.56735
1.56765
1.56774
1.56804
1.56895
1.57005
1.57158
1.57204
1
1
1
1
1
1
1
1
1
1
1
1
1
1
1
1
1
1
1
1
1
0.999995
1.00008
1.00398
1.03846
1.14854
1.3239
1.44952
1.52851
1.55071
1.55412
1.55753
1.55937
1.56054
1.56242
1.56396
1.56571
1.56781
1.56971
1.571
1.57178
1.5727
1.5735
1.57402
1.57471
1.57549
1.57673
1.57706
1
1
1
1
1
1
1
1
1
1
1
1
1
1
1
1
1
0.999999
0.999999
0.999994
1.0001
1.00477
1.03592
1.16595
1.3247
1.46147
1.53099
1.5449
1.55748
1.55983
1.56239
1.56461
1.56565
1.5672
1.56964
1.57231
1.57469
1.57636
1.57738
1.57803
1.57846
1.57906
1.57959
1.57992
1.58022
1.58057
1.58114
1.58114
1
1
1
1
1
1
1
1
1
1
1
1
1
1
1
0.999999
0.999999
0.999993
1.00016
1.00378
1.04358
1.18499
1.339
1.47932
1.52485
1.55025
1.56644
1.57383
1.57423
1.57233
1.57287
1.57377
1.57489
1.57643
1.57808
1.57966
1.58114
1.5824
1.58312
1.58318
1.58311
1.58297
1.58271
1.58254
1.58256
1.58263
1.58272
1.58278
1
1
1
1
1
1
1
1
1
1
1
1
1
0.999999
0.999999
0.999989
1.00016
1.00421
1.05748
1.18772
1.37387
1.4835
1.54695
1.58016
1.58367
1.58332
1.57996
1.57916
1.5791
1.57912
1.57938
1.57942
1.58021
1.58122
1.58173
1.58218
1.58276
1.58364
1.58454
1.58473
1.58456
1.58403
1.58356
1.58354
1.58352
1.58344
1.58335
1.58349
1
1
1
1
1
1
1
1
1
1
1
0.999999
0.999999
0.999988
1.00012
1.00796
1.06983
1.21458
1.39811
1.50798
1.58487
1.59748
1.59612
1.59223
1.58854
1.58373
1.57874
1.57809
1.57856
1.58007
1.58174
1.58369
1.58443
1.58425
1.58354
1.58306
1.58305
1.5834
1.5841
1.5842
1.58395
1.58335
1.58281
1.58252
1.58232
1.58217
1.5818
1.58241
1
1
1
1
1
1
1
1
1
0.999999
0.999999
0.999981
1.00029
1.01167
1.07608
1.26302
1.43096
1.55917
1.60343
1.59918
1.59776
1.59204
1.58488
1.58113
1.57909
1.57768
1.57741
1.57796
1.57923
1.58112
1.58339
1.58495
1.58481
1.58432
1.5835
1.58262
1.58184
1.58159
1.58171
1.58174
1.58142
1.58056
1.57951
1.57852
1.57772
1.57728
1.57667
1.57763
1
1
1
1
1
1
1
1
1
0.999969
1.00089
1.01498
1.11261
1.29572
1.46366
1.58644
1.60715
1.61693
1.61429
1.6066
1.59168
1.57949
1.57354
1.57157
1.5718
1.57228
1.57408
1.57638
1.57809
1.57925
1.57995
1.57997
1.57978
1.57898
1.5782
1.57729
1.57614
1.5754
1.57531
1.57537
1.57526
1.57458
1.57341
1.57196
1.57052
1.5696
1.56893
1.56974
1
1
1
1
0.999999
1
0.999996
1.00003
1.00197
1.02695
1.15682
1.32968
1.51637
1.57847
1.60833
1.60482
1.59357
1.59096
1.58471
1.57737
1.57487
1.57015
1.56789
1.56626
1.56607
1.56638
1.56767
1.56908
1.56935
1.56912
1.56864
1.56811
1.56765
1.56691
1.56616
1.56526
1.56416
1.56355
1.56351
1.56373
1.564
1.56389
1.56323
1.56217
1.56103
1.56017
1.55968
1.56064
1
0.999992
1.00002
1.00002
1.00045
1.00467
1.02126
1.07484
1.18223
1.34688
1.49877
1.58311
1.62561
1.62375
1.61288
1.59659
1.58104
1.55984
1.54783
1.54718
1.54852
1.551
1.55349
1.55391
1.55416
1.5538
1.55416
1.55433
1.55411
1.55398
1.55404
1.5545
1.55447
1.55417
1.55365
1.55297
1.55258
1.55255
1.5528
1.55348
1.5543
1.55463
1.55448
1.554
1.55336
1.55259
1.55183
1.55274
1.00063
1.00472
1.02644
1.06821
1.12838
1.21654
1.29934
1.3794
1.45213
1.50616
1.52775
1.56011
1.56908
1.56318
1.55283
1.54584
1.54057
1.53502
1.53366
1.5333
1.53465
1.53715
1.53942
1.54089
1.54185
1.54297
1.54403
1.54416
1.54423
1.54481
1.54593
1.54703
1.5477
1.54785
1.54761
1.54701
1.54656
1.54653
1.54686
1.54739
1.54788
1.5481
1.54807
1.54792
1.54762
1.54707
1.54675
1.54725
1.07776
1.18174
1.28439
1.37633
1.47898
1.55687
1.61885
1.67063
1.69575
1.68928
1.65883
1.61346
1.57353
1.54087
1.52568
1.51308
1.51264
1.51498
1.52029
1.52583
1.53028
1.53225
1.53362
1.5354
1.53771
1.53993
1.54132
1.54187
1.54241
1.5438
1.54581
1.54671
1.54679
1.54666
1.54588
1.54472
1.54403
1.54391
1.54397
1.54429
1.54455
1.54497
1.54523
1.54536
1.54544
1.54548
1.54547
1.54568
1.40135
1.2392
1.12393
1.01623
0.970197
0.992624
1.01744
1.01815
1.03766
1.08084
1.09874
1.09372
1.09377
1.10244
1.11033
1.1136
1.11878
1.12511
1.12368
1.1207
1.11821
1.11715
1.11568
1.11266
1.11158
1.11136
1.11071
1.10878
1.10623
1.10462
1.10423
1.10393
1.10396
1.10452
1.10504
1.10505
1.10498
1.10412
1.10285
1.10273
1.10285
1.10355
1.10458
1.10472
1.10463
1.10431
1.10346
1.10238
1.10278
1.11748
1.24292
1.43369
1.646
1.84988
2.03711
2.1574
2.18089
2.14137
2.07722
2.02449
2.00054
1.99284
1.98736
1.98261
1.97213
1.96187
1.95006
1.92928
1.90988
1.90087
1.89304
1.88608
1.8797
1.87164
1.86173
1.84449
1.81764
1.80161
1.79563
1.79041
1.78652
1.7818
1.77551
1.7674
1.75132
1.72756
1.71541
1.70998
1.70565
1.7024
1.69742
1.69095
1.68135
1.66198
1.6386
1.62971
1.626
1.62282
1.62158
1.61895
1.61413
1.60812
1.59722
1.57695
1.55852
1.55048
1.54595
1.54246
1.53919
1.53545
1.53029
1.52129
1.50786
1.49769
1.49232
1.48808
1.4838
1.47868
1.47086
1.45782
1.44496
1.43985
1.43706
1.43446
1.43179
1.42869
1.42396
1.41325
1.39542
1.38711
1.38462
1.38214
1.37954
1.37717
1.37412
1.37096
1.36716
1.35907
1.34165
1.32876
1.32554
1.32347
1.32122
1.31941
1.31716
1.31443
1.31157
1.3064
1.29313
1.27796
1.27355
1.27171
1.26973
1.26734
1.26481
1.26228
1.25935
1.25452
1.24503
1.23436
1.22971
1.22719
1.22457
1.22162
1.21802
1.21232
1.20365
1.198
1.19622
1.19453
1.19217
1.18873
1.18295
1.17242
1.1616
1.15662
1.15358
1.15176
1.15026
1.14846
1.14621
1.14364
1.14092
1.13651
1.12715
1.11717
1.11443
1.11366
1.11292
1.11203
1.11135
1.10725
1.50133
1.41189
1.33516
1.26123
1.16784
1.13511
1.11114
1.07445
1.07352
1.07517
1.06267
1.05368
1.0556
1.06288
1.07367
1.08067
1.08747
1.09703
1.09743
1.09608
1.09631
1.09962
1.10238
1.1032
1.10444
1.10449
1.10386
1.10182
1.10021
1.09992
1.09994
1.09992
1.10023
1.10089
1.10108
1.10112
1.10087
1.09974
1.09866
1.09833
1.09835
1.09877
1.09965
1.10002
1.09993
1.09912
1.09922
1.10076
1.11831
1.24425
1.44276
1.53733
1.58905
1.67506
1.76923
1.89423
1.99638
2.05123
2.06481
2.04506
2.02184
2.00819
1.99718
1.98708
1.97831
1.96844
1.95627
1.93633
1.91437
1.9012
1.89388
1.88867
1.88432
1.87643
1.86619
1.85095
1.82732
1.80679
1.79846
1.79369
1.79038
1.78519
1.77871
1.77034
1.75571
1.73421
1.72057
1.71475
1.70977
1.70556
1.70065
1.69399
1.68424
1.66783
1.64625
1.63409
1.6301
1.62745
1.62502
1.62187
1.6174
1.61101
1.59954
1.58155
1.56483
1.55628
1.55148
1.5477
1.54414
1.54028
1.5351
1.52652
1.51426
1.5042
1.4983
1.49373
1.48913
1.48379
1.47656
1.46539
1.45168
1.4445
1.4415
1.43885
1.43589
1.43219
1.42698
1.4177
1.40264
1.3931
1.38955
1.38667
1.38366
1.3807
1.37753
1.3741
1.36976
1.36198
1.34755
1.33577
1.33198
1.32929
1.32657
1.32383
1.3211
1.31817
1.31468
1.30913
1.29799
1.28426
1.27859
1.27627
1.27416
1.27142
1.2684
1.26551
1.26245
1.25829
1.25103
1.24097
1.23436
1.23092
1.22794
1.22485
1.22143
1.21702
1.21029
1.20336
1.20002
1.19778
1.19509
1.19135
1.18601
1.17796
1.16808
1.16214
1.15923
1.15692
1.15507
1.15305
1.15047
1.14747
1.14421
1.13997
1.13298
1.12377
1.11913
1.1179
1.11706
1.11594
1.11468
1.11004
1.53834
1.49728
1.43184
1.36489
1.28627
1.22367
1.18178
1.1308
1.08448
1.07239
1.05509
1.03899
1.04027
1.04611
1.05084
1.05277
1.05655
1.06494
1.06896
1.0703
1.07287
1.07851
1.08295
1.085
1.08676
1.08841
1.08909
1.089
1.08888
1.08913
1.08955
1.0901
1.09109
1.09136
1.09128
1.09093
1.08986
1.08872
1.0884
1.08839
1.08868
1.08941
1.09014
1.09067
1.09045
1.09126
1.09865
1.14026
1.25219
1.47231
1.56335
1.58571
1.58309
1.58757
1.6052
1.66694
1.81377
1.97587
2.0719
2.07352
2.05624
2.02066
1.99489
1.98576
1.98238
1.97544
1.9622
1.94331
1.92427
1.90654
1.89429
1.88708
1.8816
1.87428
1.86492
1.85418
1.84053
1.82383
1.80605
1.79333
1.78625
1.77991
1.77331
1.76532
1.75453
1.74258
1.72941
1.71467
1.70432
1.69893
1.69361
1.68727
1.67866
1.6674
1.65712
1.64683
1.63438
1.62379
1.61816
1.61335
1.60842
1.60215
1.59214
1.57962
1.57181
1.5646
1.5549
1.54434
1.53798
1.53365
1.52888
1.52176
1.51181
1.50315
1.49702
1.49182
1.48664
1.48093
1.47386
1.46374
1.45053
1.4401
1.43535
1.43256
1.43003
1.42702
1.42279
1.41642
1.40752
1.3951
1.38598
1.38178
1.37809
1.37439
1.37108
1.36802
1.36431
1.35818
1.34939
1.34026
1.33201
1.32641
1.32258
1.31908
1.31592
1.31314
1.31
1.3052
1.29803
1.28992
1.28051
1.27215
1.26839
1.26631
1.26375
1.26091
1.25784
1.25384
1.24741
1.23858
1.23163
1.22732
1.22383
1.22052
1.21712
1.21293
1.20722
1.20082
1.19604
1.19271
1.18969
1.18646
1.18248
1.17664
1.16836
1.16102
1.1573
1.15484
1.15194
1.14947
1.14727
1.14454
1.14114
1.13686
1.13021
1.12166
1.11722
1.11477
1.11333
1.11205
1.1107
1.10613
1.55589
1.53801
1.49716
1.44346
1.37862
1.31471
1.26623
1.21518
1.1572
1.13491
1.11275
1.07672
1.06683
1.06509
1.05591
1.04788
1.04793
1.04728
1.04544
1.04608
1.04887
1.05696
1.06585
1.06995
1.07231
1.07469
1.07631
1.07714
1.07769
1.07889
1.08111
1.08358
1.08466
1.08468
1.08445
1.08341
1.08143
1.08066
1.08075
1.08109
1.08157
1.08177
1.08196
1.08218
1.08304
1.09284
1.18382
1.32979
1.46336
1.57588
1.60264
1.60055
1.59512
1.59197
1.58327
1.58041
1.6042
1.71258
1.88484
2.0332
2.03973
2.02341
2.01685
2.00864
2.00032
1.98863
1.97327
1.95697
1.93895
1.92173
1.90735
1.89524
1.88631
1.87673
1.86748
1.86005
1.85318
1.84142
1.82249
1.80381
1.79064
1.78134
1.77285
1.76608
1.76058
1.75345
1.74162
1.72533
1.71064
1.69983
1.69179
1.68473
1.67908
1.67488
1.66945
1.66022
1.6457
1.63138
1.62094
1.61259
1.60409
1.59675
1.59165
1.5877
1.58262
1.57472
1.56265
1.54958
1.53962
1.53281
1.52698
1.52127
1.51494
1.50784
1.5013
1.4952
1.48929
1.48308
1.47568
1.46605
1.45367
1.44289
1.4364
1.43167
1.42807
1.42558
1.4235
1.42048
1.41386
1.40036
1.38846
1.3832
1.37954
1.37532
1.37068
1.36646
1.36334
1.36045
1.35543
1.34663
1.336
1.32827
1.3235
1.32011
1.31651
1.31248
1.30902
1.30618
1.3025
1.29606
1.28528
1.27449
1.26803
1.26522
1.26347
1.26117
1.25818
1.25394
1.24741
1.23904
1.23218
1.22764
1.22384
1.22031
1.21703
1.21319
1.20773
1.20168
1.19692
1.19314
1.18921
1.18538
1.18211
1.17833
1.17165
1.16372
1.15941
1.15655
1.15344
1.15043
1.14795
1.14519
1.1415
1.13693
1.13075
1.12226
1.11727
1.11516
1.11352
1.11195
1.11044
1.10597
1.56605
1.5598
1.53863
1.50232
1.44885
1.39014
1.34351
1.28985
1.23148
1.19939
1.17378
1.13293
1.10636
1.093
1.07522
1.05333
1.05046
1.04867
1.04403
1.04416
1.04707
1.05106
1.05612
1.05961
1.06116
1.06364
1.06585
1.06828
1.07096
1.07283
1.07623
1.07887
1.07957
1.0796
1.07935
1.07852
1.07785
1.07792
1.07862
1.07981
1.08005
1.0798
1.07922
1.07937
1.08847
1.18459
1.40661
1.51426
1.57439
1.60451
1.60995
1.60824
1.60383
1.59856
1.59273
1.58011
1.57151
1.57688
1.62439
1.77407
1.92885
2.01486
2.0368
2.0298
2.01238
1.99061
1.97354
1.96266
1.95153
1.93894
1.92325
1.90371
1.88666
1.87674
1.86941
1.86309
1.85564
1.84785
1.83661
1.81822
1.79736
1.78369
1.77533
1.76741
1.75981
1.75316
1.74575
1.73499
1.71879
1.70224
1.69269
1.68595
1.67942
1.67375
1.66901
1.66318
1.65448
1.64059
1.62314
1.61067
1.60274
1.59573
1.59042
1.58607
1.58142
1.57614
1.56938
1.55755
1.54346
1.53362
1.52638
1.51905
1.51151
1.50452
1.49815
1.49293
1.488
1.48266
1.47624
1.46806
1.45821
1.44711
1.43882
1.43489
1.43116
1.42649
1.42089
1.41525
1.40956
1.4034
1.39349
1.38497
1.38102
1.37777
1.37378
1.36917
1.36365
1.35754
1.35229
1.34651
1.34018
1.33348
1.32622
1.32057
1.31725
1.31383
1.30973
1.30471
1.29952
1.29391
1.28771
1.28122
1.27355
1.26624
1.26266
1.26033
1.25742
1.25326
1.24717
1.23992
1.23385
1.2293
1.22529
1.22147
1.21774
1.21435
1.21066
1.20563
1.20052
1.19572
1.19101
1.1864
1.18164
1.17569
1.17041
1.16806
1.1656
1.1622
1.15861
1.15482
1.1514
1.14806
1.14406
1.13937
1.13313
1.12383
1.1173
1.11587
1.1155
1.11403
1.11233
1.1079
1.57488
1.57097
1.56224
1.54249
1.50628
1.4544
1.40814
1.35957
1.30629
1.26926
1.23689
1.19401
1.16269
1.14457
1.12465
1.09358
1.08413
1.07646
1.06304
1.05714
1.05819
1.05743
1.05366
1.05217
1.05218
1.05283
1.05555
1.05978
1.06515
1.07029
1.07413
1.07728
1.07817
1.07837
1.07822
1.0778
1.07746
1.07778
1.07913
1.08038
1.08037
1.08004
1.08128
1.09784
1.19868
1.42962
1.55856
1.59475
1.61297
1.61281
1.60406
1.60505
1.6079
1.60411
1.59608
1.58312
1.56923
1.56167
1.56037
1.57414
1.6527
1.80772
1.92989
1.98569
1.98773
1.98448
1.97895
1.97272
1.96141
1.94733
1.92913
1.90839
1.88816
1.87743
1.87053
1.86505
1.8581
1.84993
1.84069
1.82744
1.8073
1.78826
1.77682
1.76822
1.76129
1.75572
1.74974
1.74148
1.72773
1.70946
1.69447
1.68629
1.68032
1.67573
1.67207
1.66792
1.66129
1.64798
1.62726
1.60969
1.60149
1.59663
1.59246
1.5889
1.58497
1.58013
1.57258
1.5616
1.54724
1.5343
1.52657
1.52064
1.51454
1.50817
1.50079
1.49346
1.48771
1.48279
1.47814
1.47316
1.46611
1.45642
1.44595
1.43696
1.43138
1.42674
1.42141
1.41528
1.40885
1.40267
1.397
1.3909
1.38358
1.3763
1.37172
1.36793
1.36311
1.35706
1.35246
1.35046
1.34777
1.34222
1.33425
1.32551
1.31731
1.31142
1.30683
1.30273
1.29897
1.29598
1.29353
1.28898
1.28063
1.26943
1.26136
1.2582
1.25595
1.25312
1.24888
1.24305
1.23738
1.23284
1.22876
1.22458
1.22041
1.21552
1.20876
1.20191
1.1968
1.19253
1.18831
1.18437
1.18057
1.17611
1.17241
1.16924
1.16507
1.15972
1.15558
1.15279
1.14978
1.14688
1.14376
1.13974
1.13366
1.1257
1.12053
1.11783
1.11432
1.1113
1.10924
1.10476
1.58113
1.57925
1.57609
1.56636
1.54406
1.50813
1.46792
1.41876
1.37074
1.33356
1.29744
1.25371
1.22134
1.19683
1.1707
1.13816
1.12272
1.11074
1.0922
1.07389
1.0713
1.06652
1.05891
1.05715
1.05659
1.05604
1.05625
1.05761
1.06129
1.06743
1.07223
1.07472
1.07648
1.07728
1.07774
1.07864
1.07908
1.07975
1.08178
1.08234
1.08222
1.0855
1.13128
1.25599
1.4549
1.59708
1.61528
1.62001
1.61794
1.61858
1.60906
1.60209
1.60138
1.60143
1.59755
1.58197
1.56475
1.55635
1.5496
1.54346
1.54208
1.56689
1.65997
1.7927
1.90672
1.95142