/*--------------------------------*- C++ -*----------------------------------*\
  =========                 |
  \\      /  F ield         | OpenFOAM: The Open Source CFD Toolbox
   \\    /   O peration     | Website:  https://openfoam.org
    \\  /    A nd           | Version:  7
     \\/     M anipulation  |
\*---------------------------------------------------------------------------*/
FoamFile
{
    version     2.0;
    format      ascii;
    class       volVectorField;
    location    "1";
    object      U;
}
// * * * * * * * * * * * * * * * * * * * * * * * * * * * * * * * * * * * * * //

dimensions      [0 1 -1 0 0 0 0];

internalField   nonuniform List<vector> 
18432
(
(3 -5.3733e-17 0)
(3 8.02638e-17 0)
(3 -1.81217e-16 0)
(3 -7.05674e-17 0)
(3 1.15549e-16 0)
(3 2.13712e-16 0)
(3 2.61056e-16 0)
(3 4.92433e-16 0)
(3 8.73754e-16 0)
(3 7.9632e-16 0)
(3 4.95545e-16 0)
(3 2.67104e-16 0)
(3 4.72848e-16 0)
(3 -2.92028e-16 0)
(3 -8.31971e-16 0)
(3 -4.07286e-16 0)
(3 -2.5783e-16 0)
(3 -6.67071e-16 0)
(3 -1.05181e-15 0)
(3 -1.02087e-15 0)
(3 -4.77728e-16 0)
(3 -5.2096e-16 0)
(3 -5.59907e-16 0)
(3 -2.97968e-16 0)
(3 -3.35643e-16 0)
(3 -1.46076e-16 0)
(3 -1.47608e-16 0)
(3 -7.05936e-16 0)
(3 -1.5687e-15 0)
(3 -2.488e-15 0)
(3 -2.9258e-15 0)
(3 -1.6303e-15 0)
(3 -6.09564e-16 0)
(3 -1.93956e-16 0)
(3 7.5776e-16 0)
(3 1.62716e-15 0)
(3 1.87633e-15 0)
(3 1.59078e-15 0)
(3 1.52694e-15 0)
(3 1.5562e-15 0)
(3 1.68101e-15 0)
(3 1.87459e-15 0)
(3 2.57492e-15 0)
(3 2.92019e-15 0)
(3 8.28082e-16 0)
(3 1.35854e-16 0)
(3 -7.69822e-16 0)
(3 -6.89873e-16 0)
(3 -9.15215e-17 0)
(3 3.46907e-17 0)
(3 -9.13008e-17 0)
(3 1.77311e-16 0)
(3 5.58305e-16 0)
(3 8.82304e-16 0)
(3 9.35837e-16 0)
(3 1.12302e-15 0)
(3 1.49652e-15 0)
(3 1.26684e-15 0)
(3 8.35233e-16 0)
(3 4.51896e-16 0)
(3 4.6808e-16 0)
(3 1.60329e-16 0)
(3 -5.1531e-16 0)
(3 -9.29692e-16 0)
(3 -5.67501e-16 0)
(3 -7.17773e-16 0)
(3 -1.54597e-15 0)
(3 -1.71645e-15 0)
(3 -1.07469e-15 0)
(3 -7.01539e-16 0)
(3 -3.81946e-16 0)
(3 8.23633e-17 0)
(3 -1.35724e-16 0)
(3 -1.60659e-17 0)
(3 -1.21318e-16 0)
(3 -9.13782e-16 0)
(3 -1.78613e-15 0)
(3 -2.69532e-15 0)
(3 -3.23676e-15 0)
(3 -2.27576e-15 0)
(3 -1.07703e-15 0)
(3 -4.81353e-16 0)
(3 1.08448e-15 0)
(3 1.93352e-15 0)
(3 2.18072e-15 0)
(3 1.71277e-15 0)
(3 1.01121e-15 0)
(3 1.18201e-15 0)
(3 1.89531e-15 0)
(3 3.18869e-15 0)
(3 4.50478e-15 0)
(3 3.92984e-15 0)
(3 1.01437e-15 0)
(3 -1.06037e-15 0)
(3 -1.08004e-15 0)
(3 -3.09379e-15 0)
(3 -1.03364e-16 0)
(3 -2.73013e-16 0)
(3 -3.40549e-16 0)
(3 -1.39828e-17 0)
(3 5.55586e-16 0)
(3 1.07526e-15 0)
(3 1.25518e-15 0)
(3 1.55454e-15 0)
(3 1.54925e-15 0)
(3 6.43637e-16 0)
(3 -7.14088e-18 0)
(3 3.53526e-16 0)
(3 6.07237e-16 0)
(3 1.44438e-15 0)
(3 1.03175e-15 0)
(3 -5.4372e-16 0)
(3 -1.0979e-15 0)
(3 -9.44772e-16 0)
(3 -8.91328e-16 0)
(3 -1.02696e-16 0)
(3 -2.64804e-16 0)
(3 -5.16933e-16 0)
(3 5.61027e-16 0)
(3 1.20079e-15 0)
(3 1.15545e-15 0)
(3 5.66739e-16 0)
(3 5.83118e-17 0)
(3 -8.44745e-16 0)
(3 -1.88148e-15 0)
(3 -1.27292e-15 0)
(3 1.28244e-16 0)
(3 4.31019e-16 0)
(3 6.25949e-16 0)
(3 7.15649e-16 0)
(3 2.42598e-15 0)
(3 3.74155e-15 0)
(3 4.19916e-15 0)
(3 3.95364e-15 0)
(3 3.17686e-15 0)
(3 2.76086e-15 0)
(3 3.07458e-15 0)
(3 4.08295e-15 0)
(3 5.38274e-15 0)
(3 5.06352e-15 0)
(3 3.64635e-15 0)
(3 5.17724e-16 0)
(3 3.78047e-16 0)
(3 -2.9089e-15 0)
(3 3.91718e-16 0)
(3 -5.34898e-16 0)
(3 -1.17172e-15 0)
(3 -8.19556e-16 0)
(3 -1.00435e-16 0)
(3 1.11111e-15 0)
(3 1.31673e-15 0)
(3 1.35467e-15 0)
(3 6.27397e-16 0)
(3 5.54915e-16 0)
(3 2.5597e-16 0)
(3 -3.2166e-16 0)
(3 -3.27557e-16 0)
(3 8.62097e-17 0)
(3 6.35493e-17 0)
(3 -1.34234e-16 0)
(3 -9.02282e-16 0)
(3 -3.48794e-16 0)
(3 7.95197e-16 0)
(3 1.22358e-15 0)
(3 4.73324e-16 0)
(3 -6.65311e-16 0)
(3 -5.66183e-16 0)
(3 6.1485e-16 0)
(3 8.52144e-16 0)
(3 2.62217e-16 0)
(3 -3.77992e-16 0)
(3 -7.30093e-16 0)
(3 -5.70544e-16 0)
(3 1.50884e-16 0)
(3 8.34711e-16 0)
(3 1.20333e-15 0)
(3 1.11029e-15 0)
(3 1.88676e-15 0)
(3 2.73048e-15 0)
(3 3.19928e-15 0)
(3 3.57083e-15 0)
(3 3.46054e-15 0)
(3 3.66384e-15 0)
(3 3.98211e-15 0)
(3 4.03169e-15 0)
(3 4.09441e-15 0)
(3 4.52914e-15 0)
(3 4.96175e-15 0)
(3 5.27228e-15 0)
(3 3.36556e-15 0)
(3 -5.72092e-16 0)
(3 -2.97423e-15 0)
(3 3.66172e-16 0)
(3 -1.81085e-17 0)
(3 -4.72018e-16 0)
(3 -1.18865e-15 0)
(3 -1.36726e-15 0)
(3 -6.80398e-16 0)
(3 1.05587e-16 0)
(3 7.68406e-18 0)
(3 -1.10706e-16 0)
(3 1.23136e-16 0)
(3 -1.45101e-16 0)
(3 -5.44101e-16 0)
(3 -1.78439e-15 0)
(3 -1.94191e-15 0)
(3 -1.73349e-15 0)
(3 1.92354e-16 0)
(3 9.98698e-16 0)
(3 1.25316e-15 0)
(3 1.67665e-15 0)
(3 1.44115e-15 0)
(3 1.66062e-15 0)
(3 1.27517e-15 0)
(3 1.17608e-15 0)
(3 8.27413e-16 0)
(3 9.66834e-16 0)
(3 1.05095e-15 0)
(3 2.7373e-16 0)
(3 2.99623e-16 0)
(3 5.8386e-16 0)
(3 9.66957e-16 0)
(3 9.84543e-16 0)
(3 9.24766e-16 0)
(3 7.08077e-16 0)
(3 8.73948e-16 0)
(3 5.11315e-16 0)
(3 2.49757e-16 0)
(3 3.46426e-16 0)
(3 5.60854e-16 0)
(3 7.52297e-16 0)
(3 1.55266e-15 0)
(3 2.55559e-15 0)
(3 2.99058e-15 0)
(3 2.62693e-15 0)
(3 2.37512e-15 0)
(3 2.21531e-15 0)
(3 1.71362e-15 0)
(3 2.2101e-16 0)
(3 -1.2874e-15 0)
(3 -4.98866e-17 0)
(3 2.07599e-16 0)
(3 5.47265e-17 0)
(3 -3.19823e-16 0)
(3 -6.9425e-16 0)
(3 -7.48159e-16 0)
(3 -6.40078e-16 0)
(3 -7.37487e-17 0)
(3 6.75759e-16 0)
(3 8.56008e-16 0)
(3 7.48557e-16 0)
(3 9.71816e-16 0)
(3 3.17672e-16 0)
(3 -2.92738e-16 0)
(3 -7.16258e-16 0)
(3 4.95754e-16 0)
(3 1.08504e-15 0)
(3 1.77541e-15 0)
(3 1.80416e-15 0)
(3 1.92065e-15 0)
(3 1.97357e-15 0)
(3 2.06703e-15 0)
(3 2.35078e-15 0)
(3 1.89944e-15 0)
(3 1.30659e-15 0)
(3 1.27775e-15 0)
(3 1.10808e-15 0)
(3 3.50551e-16 0)
(3 2.98297e-16 0)
(3 7.69331e-18 0)
(3 1.14814e-16 0)
(3 8.93121e-16 0)
(3 1.06669e-15 0)
(3 9.93129e-16 0)
(3 7.41862e-16 0)
(3 7.53456e-16 0)
(3 8.91258e-16 0)
(3 -2.90848e-16 0)
(3 -1.12546e-15 0)
(3 -8.12948e-16 0)
(3 8.04203e-16 0)
(3 1.00557e-15 0)
(3 2.6528e-16 0)
(3 -2.51293e-16 0)
(3 -1.19124e-16 0)
(3 8.72973e-17 0)
(3 7.23436e-17 0)
(3 -2.05175e-16 0)
(3 -4.4208e-16 0)
(3 -6.87889e-16 0)
(3 -4.25395e-16 0)
(3 -2.09503e-16 0)
(3 -5.58838e-16 0)
(3 -1.02702e-15 0)
(3 -8.18215e-16 0)
(3 2.34624e-19 0)
(3 8.25338e-16 0)
(3 1.18446e-15 0)
(3 1.07622e-15 0)
(3 1.40897e-15 0)
(3 1.30738e-15 0)
(3 6.59778e-17 0)
(3 -6.95402e-16 0)
(3 2.97259e-16 0)
(3 7.07852e-16 0)
(3 2.06439e-15 0)
(3 1.87857e-15 0)
(3 1.94647e-15 0)
(3 5.60397e-16 0)
(3 4.18555e-16 0)
(3 3.95751e-16 0)
(3 8.90336e-16 0)
(3 1.26816e-15 0)
(3 9.14506e-16 0)
(3 1.75446e-16 0)
(3 -2.02757e-16 0)
(3 -2.50851e-16 0)
(3 3.68851e-18 0)
(3 6.08768e-16 0)
(3 1.90702e-15 0)
(3 2.25316e-15 0)
(3 2.2751e-15 0)
(3 2.02743e-15 0)
(3 2.2609e-15 0)
(3 2.67528e-15 0)
(3 9.18627e-16 0)
(3 -9.98663e-16 0)
(3 -2.09088e-15 0)
(3 -2.1626e-15 0)
(3 -1.4782e-15 0)
(3 -5.02673e-16 0)
(3 -5.05003e-16 0)
(3 1.22469e-15 0)
(3 1.60455e-15 0)
(3 1.65259e-15 0)
(3 1.44658e-15 0)
(3 -1.01856e-17 0)
(3 -8.15951e-17 0)
(3 1.66524e-16 0)
(3 -6.85524e-17 0)
(3 -7.7043e-16 0)
(3 -1.5868e-15 0)
(3 -1.45349e-15 0)
(3 -9.08715e-16 0)
(3 -4.30988e-16 0)
(3 -3.77078e-16 0)
(3 8.28317e-16 0)
(3 1.29029e-15 0)
(3 1.25492e-15 0)
(3 3.70682e-16 0)
(3 -1.76869e-16 0)
(3 4.98861e-16 0)
(3 1.03021e-15 0)
(3 1.02066e-15 0)
(3 1.19645e-15 0)
(3 1.53523e-15 0)
(3 5.7901e-16 0)
(3 -8.04111e-16 0)
(3 -1.59608e-15 0)
(3 -1.03785e-15 0)
(3 6.62224e-16 0)
(3 -1.1422e-16 0)
(3 -6.38745e-16 0)
(3 -5.23342e-18 0)
(3 -5.50776e-17 0)
(3 7.7297e-17 0)
(3 9.12679e-16 0)
(3 1.62462e-15 0)
(3 2.49769e-15 0)
(3 2.03052e-15 0)
(3 9.16808e-16 0)
(3 7.31617e-16 0)
(3 -8.78256e-17 0)
(3 -4.44356e-16 0)
(3 -1.40622e-15 0)
(3 -2.11058e-15 0)
(3 -2.93688e-15 0)
(3 -1.50645e-15 0)
(3 -2.10649e-16 0)
(3 1.10907e-15 0)
(3 9.13554e-16 0)
(3 2.52127e-15 0)
(3 3.61099e-15 0)
(3 3.04762e-15 0)
(3 3.47927e-16 0)
(3 7.44348e-16 0)
(3 8.71214e-16 0)
(3 6.95888e-16 0)
(3 5.1349e-16 0)
(3 2.8679e-16 0)
(3 2.8224e-16 0)
(3 -6.5824e-16 0)
(3 -5.09348e-16 0)
(3 1.05989e-16 0)
(3 8.13472e-16 0)
(3 1.03982e-15 0)
(3 1.92872e-16 0)
(3 -2.52061e-16 0)
(3 -8.5984e-16 0)
(3 -6.55353e-16 0)
(3 -9.11695e-17 0)
(3 5.32977e-16 0)
(3 9.77913e-16 0)
(3 7.48019e-16 0)
(3 5.76599e-16 0)
(3 8.33113e-17 0)
(3 -1.21188e-15 0)
(3 -1.34292e-15 0)
(3 -1.17141e-15 0)
(3 -1.64224e-15 0)
(3 -1.76946e-15 0)
(3 -1.28249e-15 0)
(3 -1.78657e-16 0)
(3 1.12496e-15 0)
(3 1.12098e-15 0)
(3 7.04114e-16 0)
(3 4.71046e-16 0)
(3 -3.15084e-16 0)
(3 -6.37891e-16 0)
(3 -7.93964e-16 0)
(3 -1.10942e-15 0)
(3 -1.47349e-15 0)
(3 -1.26966e-15 0)
(3 -4.41182e-16 0)
(3 -1.34555e-15 0)
(3 -3.60517e-15 0)
(3 -3.66282e-15 0)
(3 -3.29339e-15 0)
(3 -1.75322e-15 0)
(3 3.86895e-16 0)
(3 1.15561e-15 0)
(3 1.53316e-15 0)
(3 -1.42453e-16 0)
(3 -4.89345e-17 0)
(3 2.02504e-16 0)
(3 2.89945e-16 0)
(3 5.05077e-16 0)
(3 8.04689e-16 0)
(3 6.52629e-16 0)
(3 7.12287e-17 0)
(3 -2.24851e-17 0)
(3 1.66084e-16 0)
(3 6.56645e-16 0)
(3 9.34234e-18 0)
(3 -1.16108e-15 0)
(3 -1.42819e-15 0)
(3 -2.22088e-15 0)
(3 -2.92658e-15 0)
(3 -2.7024e-15 0)
(3 -7.07302e-16 0)
(3 3.58984e-16 0)
(3 7.39575e-16 0)
(3 1.01671e-15 0)
(3 5.90421e-16 0)
(3 3.86784e-16 0)
(3 -9.85014e-16 0)
(3 -2.07691e-15 0)
(3 -1.07797e-15 0)
(3 -9.10915e-16 0)
(3 -1.15256e-15 0)
(3 -6.81919e-16 0)
(3 2.07375e-16 0)
(3 8.54581e-16 0)
(3 1.15294e-15 0)
(3 1.07896e-15 0)
(3 9.96882e-16 0)
(3 7.49096e-16 0)
(3 3.40238e-17 0)
(3 -3.29737e-16 0)
(3 -3.82064e-16 0)
(3 1.65199e-16 0)
(3 4.83314e-16 0)
(3 6.21318e-16 0)
(3 -2.64541e-15 0)
(3 -3.99941e-15 0)
(3 -4.77577e-15 0)
(3 -3.94282e-15 0)
(3 -2.99762e-15 0)
(3 -1.74341e-15 0)
(3 -4.00203e-16 0)
(3 -5.58998e-17 0)
(3 -2.74037e-17 0)
(3 -1.89893e-16 0)
(3 -3.00714e-16 0)
(3 2.98702e-16 0)
(3 4.89035e-16 0)
(3 2.66701e-16 0)
(3 4.10324e-16 0)
(3 7.4909e-16 0)
(3 2.78238e-16 0)
(3 -4.28512e-16 0)
(3 -1.2388e-16 0)
(3 -5.23904e-17 0)
(3 -4.04651e-16 0)
(3 -3.53595e-16 0)
(3 -1.97805e-15 0)
(3 -2.74434e-15 0)
(3 -2.48847e-15 0)
(3 -1.44906e-15 0)
(3 3.3044e-16 0)
(3 1.27417e-15 0)
(3 1.21476e-15 0)
(3 1.45736e-15 0)
(3 9.44104e-16 0)
(3 1.05647e-15 0)
(3 1.75733e-15 0)
(3 1.76532e-15 0)
(3 7.09759e-16 0)
(3 -2.54441e-16 0)
(3 -8.78063e-16 0)
(3 -2.40373e-16 0)
(3 1.18542e-15 0)
(3 1.43486e-15 0)
(3 1.13792e-15 0)
(3 3.68313e-17 0)
(3 -2.97264e-16 0)
(3 -5.37025e-16 0)
(3 -3.0531e-16 0)
(3 2.60631e-17 0)
(3 2.44995e-16 0)
(3 9.11224e-16 0)
(3 -8.23667e-16 0)
(3 -3.75807e-15 0)
(3 -3.51895e-15 0)
(3 -2.96117e-15 0)
(3 -2.43856e-15 0)
(3 -1.81489e-15 0)
(3 -2.04047e-15 0)
(3 9.92642e-17 0)
(3 2.57503e-16 0)
(3 4.54951e-16 0)
(3 5.61289e-16 0)
(3 7.54694e-16 0)
(3 6.74538e-16 0)
(3 7.75167e-16 0)
(3 8.50395e-16 0)
(3 7.76347e-16 0)
(3 6.24154e-16 0)
(3 -1.05187e-15 0)
(3 -9.32673e-16 0)
(3 -8.54156e-16 0)
(3 -4.72311e-16 0)
(3 2.28323e-16 0)
(3 -8.67777e-17 0)
(3 -6.26277e-16 0)
(3 -1.27305e-15 0)
(3 -1.00686e-15 0)
(3 -4.20002e-16 0)
(3 8.57233e-16 0)
(3 2.08026e-15 0)
(3 1.34831e-15 0)
(3 2.39108e-15 0)
(3 2.84323e-15 0)
(3 2.62923e-15 0)
(3 2.01938e-15 0)
(3 1.69853e-15 0)
(3 1.45083e-15 0)
(3 8.80638e-16 0)
(3 1.92254e-16 0)
(3 4.21734e-16 0)
(3 4.86288e-16 0)
(3 -3.2229e-16 0)
(3 -6.11346e-16 0)
(3 -7.60993e-17 0)
(3 -1.23581e-16 0)
(3 -3.61473e-17 0)
(3 1.18363e-16 0)
(3 1.49071e-15 0)
(3 2.10179e-15 0)
(3 1.84342e-15 0)
(3 2.30379e-15 0)
(3 1.80352e-15 0)
(3 -3.53629e-16 0)
(3 -1.21908e-15 0)
(3 -1.63588e-15 0)
(3 -2.57038e-15 0)
(3 2.21e-19 0)
(3 1.79591e-16 0)
(3 1.13121e-16 0)
(3 2.33266e-16 0)
(3 4.90809e-17 0)
(3 -1.41353e-16 0)
(3 -1.6874e-16 0)
(3 -1.37675e-16 0)
(3 -9.27923e-16 0)
(3 -9.83219e-16 0)
(3 -6.43315e-16 0)
(3 -5.7222e-16 0)
(3 -4.4567e-16 0)
(3 -9.21976e-17 0)
(3 5.73373e-16 0)
(3 9.08542e-16 0)
(3 6.16772e-16 0)
(3 -3.75421e-16 0)
(3 -1.13387e-15 0)
(3 -1.34911e-15 0)
(3 -1.18468e-15 0)
(3 -1.78625e-16 0)
(3 -4.95062e-16 0)
(3 3.21117e-16 0)
(3 5.26951e-16 0)
(3 9.7474e-16 0)
(3 1.53237e-15 0)
(3 2.76275e-15 0)
(3 2.65569e-15 0)
(3 2.38693e-15 0)
(3 1.49798e-15 0)
(3 2.08958e-16 0)
(3 -4.23684e-16 0)
(3 -4.71641e-16 0)
(3 -4.06515e-16 0)
(3 8.62466e-16 0)
(3 1.61349e-15 0)
(3 1.9534e-15 0)
(3 1.84298e-15 0)
(3 2.07071e-15 0)
(3 2.44122e-15 0)
(3 3.65292e-15 0)
(3 4.98277e-15 0)
(3 4.59769e-15 0)
(3 2.87381e-15 0)
(3 2.25719e-15 0)
(3 -4.14099e-16 0)
(3 -1.53471e-15 0)
(3 -1.26798e-16 0)
(3 -5.66783e-18 0)
(3 -5.84959e-16 0)
(3 -9.69805e-16 0)
(3 -1.14991e-15 0)
(3 -8.54172e-16 0)
(3 -9.02979e-16 0)
(3 -9.05076e-16 0)
(3 -8.65054e-16 0)
(3 -3.70384e-16 0)
(3 4.81896e-16 0)
(3 5.69312e-16 0)
(3 1.21444e-15 0)
(3 1.88651e-15 0)
(3 1.96976e-15 0)
(3 2.1457e-15 0)
(3 1.35158e-15 0)
(3 -4.55934e-16 0)
(3 -1.77194e-15 0)
(3 -3.12687e-15 0)
(3 -4.16734e-15 0)
(3 -2.56165e-15 0)
(3 -1.50079e-15 0)
(3 -1.19939e-15 0)
(3 -8.86467e-16 0)
(3 8.85708e-17 0)
(3 1.74796e-15 0)
(3 2.69118e-15 0)
(3 2.59901e-15 0)
(3 2.26975e-15 0)
(3 1.5293e-15 0)
(3 -1.20961e-16 0)
(3 -1.46995e-15 0)
(3 -8.33639e-16 0)
(3 1.41925e-15 0)
(3 2.44268e-15 0)
(3 3.38617e-15 0)
(3 3.57665e-15 0)
(3 3.4562e-15 0)
(3 2.50952e-15 0)
(3 2.39598e-15 0)
(3 3.0437e-15 0)
(3 3.2759e-15 0)
(3 2.36771e-15 0)
(3 1.72798e-15 0)
(3 1.94939e-15 0)
(3 1.6885e-15 0)
(3 8.78986e-16 0)
(3 -1.72105e-16 0)
(3 5.74766e-17 0)
(3 1.81545e-16 0)
(3 5.13347e-16 0)
(3 5.87554e-16 0)
(3 3.80858e-16 0)
(3 1.71194e-16 0)
(3 4.88655e-17 0)
(3 4.32914e-16 0)
(3 1.5366e-16 0)
(3 -3.1021e-16 0)
(3 -2.67083e-16 0)
(3 4.43433e-16 0)
(3 1.06256e-15 0)
(3 1.62588e-15 0)
(3 1.33602e-15 0)
(3 9.87051e-16 0)
(3 2.787e-16 0)
(3 -1.64812e-15 0)
(3 -2.46771e-15 0)
(3 -2.68056e-15 0)
(3 -1.65696e-15 0)
(3 5.64746e-17 0)
(3 2.01553e-16 0)
(3 7.0295e-16 0)
(3 9.31305e-16 0)
(3 1.45519e-15 0)
(3 2.16248e-15 0)
(3 2.64873e-15 0)
(3 2.53127e-15 0)
(3 2.10662e-15 0)
(3 1.78087e-15 0)
(3 1.1515e-15 0)
(3 1.26288e-15 0)
(3 2.71434e-15 0)
(3 2.83318e-15 0)
(3 2.92912e-15 0)
(3 2.88215e-15 0)
(3 3.04692e-15 0)
(3 2.97378e-15 0)
(3 3.29509e-15 0)
(3 4.00095e-15 0)
(3 1.54023e-15 0)
(3 1.06986e-15 0)
(3 1.17483e-16 0)
(3 9.82315e-17 0)
(3 8.19596e-16 0)
(3 1.63788e-15 0)
(3 1.36607e-16 0)
(3 4.73387e-17 0)
(3 3.33224e-16 0)
(3 4.44462e-16 0)
(3 3.4836e-16 0)
(3 -5.69227e-16 0)
(3 -6.18517e-16 0)
(3 8.02362e-17 0)
(3 2.04119e-16 0)
(3 -2.36246e-16 0)
(3 -4.70968e-16 0)
(3 -1.79988e-16 0)
(3 1.96513e-16 0)
(3 1.00428e-15 0)
(3 1.10466e-15 0)
(3 7.20848e-16 0)
(3 3.96871e-16 0)
(3 -1.37176e-16 0)
(3 -2.80827e-16 0)
(3 -4.41144e-16 0)
(3 -2.91335e-16 0)
(3 5.27063e-16 0)
(3 1.874e-15 0)
(3 1.52583e-15 0)
(3 1.37271e-15 0)
(3 3.32071e-16 0)
(3 2.94027e-16 0)
(3 1.22211e-15 0)
(3 1.66108e-15 0)
(3 2.47918e-15 0)
(3 2.32141e-15 0)
(3 2.40751e-15 0)
(3 2.86874e-15 0)
(3 2.21708e-15 0)
(3 2.06191e-15 0)
(3 6.79976e-16 0)
(3 9.09197e-16 0)
(3 2.32282e-15 0)
(3 2.63228e-15 0)
(3 2.89432e-15 0)
(3 3.08921e-15 0)
(3 2.74366e-15 0)
(3 2.08891e-15 0)
(3 2.09351e-15 0)
(3 1.25065e-15 0)
(3 1.12467e-16 0)
(3 3.75029e-16 0)
(3 4.385e-16 0)
(3 1.50182e-17 0)
(3 -9.76948e-17 0)
(3 -1.56085e-16 0)
(3 -5.99029e-16 0)
(3 -1.19634e-15 0)
(3 -1.37885e-15 0)
(3 -1.37888e-15 0)
(3 -1.55657e-15 0)
(3 -1.57112e-15 0)
(3 -1.31011e-15 0)
(3 -3.96863e-16 0)
(3 4.86962e-16 0)
(3 5.38951e-16 0)
(3 3.49291e-16 0)
(3 8.72655e-16 0)
(3 8.18093e-16 0)
(3 6.85415e-16 0)
(3 7.8868e-16 0)
(3 1.55423e-15 0)
(3 2.18289e-15 0)
(3 2.16709e-15 0)
(3 1.16884e-15 0)
(3 9.38705e-16 0)
(3 1.19125e-15 0)
(3 9.90881e-16 0)
(3 7.76368e-16 0)
(3 5.94004e-16 0)
(3 1.57181e-16 0)
(3 8.26158e-16 0)
(3 1.31849e-15 0)
(3 8.06784e-16 0)
(3 3.66765e-16 0)
(3 2.35225e-16 0)
(3 3.0193e-16 0)
(3 -7.4439e-17 0)
(3 2.92438e-16 0)
(3 8.74906e-16 0)
(3 1.96024e-15 0)
(3 2.27252e-15 0)
(3 2.42408e-15 0)
(3 2.16888e-15 0)
(3 2.65565e-15 0)
(3 3.06627e-15 0)
(3 2.73162e-15 0)
(3 1.67728e-15 0)
(3 1.1719e-15 0)
(3 -2.42015e-16 0)
(3 -1.15119e-15 0)
(3 -1.19756e-16 0)
(3 -4.66897e-17 0)
(3 3.60595e-16 0)
(3 1.5827e-16 0)
(3 -3.30289e-16 0)
(3 -3.04186e-16 0)
(3 -1.02458e-15 0)
(3 -2.24696e-15 0)
(3 -2.62679e-15 0)
(3 -1.71663e-15 0)
(3 -1.57303e-15 0)
(3 -9.29847e-16 0)
(3 -7.10302e-16 0)
(3 -9.92414e-17 0)
(3 3.47945e-16 0)
(3 1.10295e-15 0)
(3 1.37391e-15 0)
(3 2.21801e-15 0)
(3 2.50726e-15 0)
(3 2.68905e-15 0)
(3 1.97619e-15 0)
(3 3.38446e-16 0)
(3 2.48525e-16 0)
(3 5.53936e-16 0)
(3 1.01968e-15 0)
(3 9.74383e-16 0)
(3 7.03109e-16 0)
(3 -9.90733e-16 0)
(3 -1.33597e-15 0)
(3 -1.76464e-15 0)
(3 -2.00061e-15 0)
(3 -2.1804e-15 0)
(3 -2.48239e-15 0)
(3 -2.25315e-15 0)
(3 -2.30064e-15 0)
(3 -1.34242e-15 0)
(3 -1.49113e-15 0)
(3 -2.163e-15 0)
(3 -1.72616e-15 0)
(3 -9.7413e-16 0)
(3 -6.7366e-16 0)
(3 -8.08753e-16 0)
(3 -1.3498e-15 0)
(3 -1.91341e-15 0)
(3 -1.66201e-15 0)
(3 -1.18709e-15 0)
(3 -1.10481e-15 0)
(3 -1.53957e-15 0)
(3 1.03246e-16 0)
(3 -1.06704e-16 0)
(3 1.77134e-16 0)
(3 2.11096e-16 0)
(3 -7.699e-17 0)
(3 -5.87888e-16 0)
(3 -1.66531e-15 0)
(3 -2.29831e-15 0)
(3 -2.27326e-15 0)
(3 -1.76772e-15 0)
(3 -1.29952e-15 0)
(3 2.78174e-16 0)
(3 2.17591e-16 0)
(3 1.93631e-16 0)
(3 7.52046e-18 0)
(3 9.62792e-16 0)
(3 1.95556e-15 0)
(3 2.5849e-15 0)
(3 1.79207e-15 0)
(3 1.27732e-15 0)
(3 -3.30797e-16 0)
(3 -1.11708e-15 0)
(3 -9.22151e-16 0)
(3 -8.09599e-16 0)
(3 -7.19517e-16 0)
(3 1.10909e-16 0)
(3 -7.11343e-16 0)
(3 -1.2683e-15 0)
(3 -2.08841e-15 0)
(3 -3.27505e-15 0)
(3 -3.35281e-15 0)
(3 -2.46446e-15 0)
(3 -2.55953e-15 0)
(3 -2.61816e-15 0)
(3 -2.17071e-15 0)
(3 -1.76553e-15 0)
(3 -1.81395e-15 0)
(3 -2.33066e-15 0)
(3 -2.62457e-15 0)
(3 -1.44858e-15 0)
(3 -2.14167e-15 0)
(3 -3.65877e-15 0)
(3 -4.41031e-15 0)
(3 -4.87182e-15 0)
(3 -3.48009e-15 0)
(3 -2.17385e-15 0)
(3 3.37317e-16 0)
(3 7.23836e-17 0)
(3 1.36387e-16 0)
(3 -3.85839e-16 0)
(3 -5.40328e-16 0)
(3 -3.31971e-16 0)
(3 3.33039e-16 0)
(3 -1.09218e-16 0)
(3 -4.13651e-16 0)
(3 -5.90574e-16 0)
(3 -1.60227e-15 0)
(3 -2.12584e-15 0)
(3 -1.77292e-15 0)
(3 -1.96269e-16 0)
(3 -7.37766e-17 0)
(3 -7.56735e-17 0)
(3 2.60698e-16 0)
(3 7.67622e-16 0)
(3 1.42669e-15 0)
(3 1.70726e-15 0)
(3 1.27054e-15 0)
(3 -3.30864e-17 0)
(3 -6.67433e-16 0)
(3 -1.20935e-15 0)
(3 -2.76467e-15 0)
(3 -2.71134e-15 0)
(3 -2.52821e-15 0)
(3 -2.21451e-15 0)
(3 -9.36086e-16 0)
(3 -1.19518e-15 0)
(3 -1.9196e-15 0)
(3 -2.86747e-15 0)
(3 -3.46441e-15 0)
(3 -3.04325e-15 0)
(3 -2.3525e-15 0)
(3 -2.90385e-15 0)
(3 -2.19686e-15 0)
(3 -1.37237e-15 0)
(3 -1.20688e-15 0)
(3 -6.38943e-16 0)
(3 -5.5405e-16 0)
(3 2.91188e-17 0)
(3 2.07495e-16 0)
(3 7.66524e-18 0)
(3 -6.60506e-16 0)
(3 -1.45178e-15 0)
(3 -1.7356e-15 0)
(3 -2.36552e-15 0)
(3 1.64413e-16 0)
(3 1.17117e-15 0)
(3 -7.08503e-17 0)
(3 -3.58616e-16 0)
(3 -7.29852e-16 0)
(3 -5.85059e-16 0)
(3 -2.34289e-16 0)
(3 8.0665e-17 0)
(3 4.67865e-16 0)
(3 7.0017e-16 0)
(3 3.92148e-16 0)
(3 -1.00021e-15 0)
(3 -1.39507e-15 0)
(3 -2.0825e-15 0)
(3 -3.25209e-16 0)
(3 2.41293e-16 0)
(3 9.96939e-16 0)
(3 8.16139e-16 0)
(3 6.11341e-16 0)
(3 4.38807e-16 0)
(3 5.77422e-16 0)
(3 7.15803e-16 0)
(3 2.4883e-16 0)
(3 -7.05688e-16 0)
(3 -1.45183e-15 0)
(3 -2.417e-15 0)
(3 -3.02016e-15 0)
(3 -2.72756e-15 0)
(3 -1.2167e-15 0)
(3 -2.13106e-15 0)
(3 -2.17155e-15 0)
(3 -2.18695e-15 0)
(3 -2.14316e-15 0)
(3 -1.63274e-15 0)
(3 -6.64895e-16 0)
(3 -1.14748e-16 0)
(3 -3.4114e-16 0)
(3 -6.685e-16 0)
(3 -7.34773e-16 0)
(3 -3.0558e-16 0)
(3 -2.84341e-17 0)
(3 -3.83702e-17 0)
(3 6.10323e-16 0)
(3 7.86384e-16 0)
(3 3.65956e-16 0)
(3 -6.82125e-16 0)
(3 -1.56653e-15 0)
(3 -2.3214e-15 0)
(3 -9.8703e-16 0)
(3 6.61082e-16 0)
(3 -2.53287e-16 0)
(3 -3.94174e-18 0)
(3 -3.75831e-16 0)
(3 -4.59218e-16 0)
(3 -7.4644e-16 0)
(3 -3.01963e-16 0)
(3 -1.81248e-16 0)
(3 1.13332e-16 0)
(3 -2.23215e-18 0)
(3 -5.9438e-16 0)
(3 -8.59247e-16 0)
(3 -1.06093e-15 0)
(3 -5.84679e-16 0)
(3 -8.01601e-16 0)
(3 -9.10531e-16 0)
(3 -3.98213e-16 0)
(3 -2.21568e-16 0)
(3 -6.1707e-16 0)
(3 -6.1704e-17 0)
(3 1.4252e-16 0)
(3 -4.37669e-16 0)
(3 -1.00311e-15 0)
(3 -9.08298e-16 0)
(3 -1.83198e-15 0)
(3 -2.46147e-15 0)
(3 -1.98469e-15 0)
(3 -2.68779e-15 0)
(3 -2.86231e-15 0)
(3 -2.49178e-15 0)
(3 -1.91171e-15 0)
(3 -1.65343e-15 0)
(3 -2.44209e-16 0)
(3 2.64525e-16 0)
(3 9.68016e-16 0)
(3 1.84482e-15 0)
(3 1.78171e-15 0)
(3 9.35223e-16 0)
(3 -4.0344e-16 0)
(3 -1.70331e-16 0)
(3 -4.262e-17 0)
(3 -5.70856e-16 0)
(3 -7.64997e-16 0)
(3 -1.04943e-15 0)
(3 -2.45467e-15 0)
(3 -2.84186e-15 0)
(3 -2.69889e-15 0)
(3 -2.27644e-15 0)
(3 6.3234e-16 0)
(3 6.52377e-17 0)
(3 1.67942e-16 0)
(3 7.51869e-17 0)
(3 -4.68683e-16 0)
(3 -6.83041e-16 0)
(3 -9.59944e-16 0)
(3 -1.4933e-15 0)
(3 -1.2583e-15 0)
(3 -5.7423e-16 0)
(3 -6.06705e-16 0)
(3 -1.84717e-16 0)
(3 -1.31269e-15 0)
(3 -2.35665e-15 0)
(3 -2.87889e-15 0)
(3 -2.41407e-15 0)
(3 -1.95085e-15 0)
(3 -1.10025e-15 0)
(3 -1.93684e-16 0)
(3 1.50993e-16 0)
(3 4.82145e-16 0)
(3 4.67958e-16 0)
(3 5.61089e-17 0)
(3 -3.72759e-17 0)
(3 -2.72408e-16 0)
(3 -8.41459e-16 0)
(3 -1.2935e-15 0)
(3 -1.95352e-15 0)
(3 -1.88563e-15 0)
(3 -9.28129e-16 0)
(3 -3.22787e-16 0)
(3 -1.52429e-17 0)
(3 -3.07153e-16 0)
(3 -2.6288e-16 0)
(3 -3.02515e-16 0)
(3 -2.38293e-16 0)
(3 1.54913e-16 0)
(3 2.51969e-16 0)
(3 3.69281e-16 0)
(3 6.37683e-16 0)
(3 5.23442e-16 0)
(3 2.67046e-16 0)
(3 4.38649e-16 0)
(3 1.84458e-16 0)
(3 -9.99709e-16 0)
(3 -1.70974e-15 0)
(3 -1.83926e-15 0)
(3 -4.18835e-18 0)
(3 1.60253e-15 0)
(3 1.86241e-16 0)
(3 4.08948e-16 0)
(3 4.84224e-16 0)
(3 7.69728e-17 0)
(3 -8.24426e-16 0)
(3 -2.31979e-15 0)
(3 -2.63148e-15 0)
(3 -2.3281e-15 0)
(3 -7.51672e-16 0)
(3 -3.73902e-16 0)
(3 -4.00306e-16 0)
(3 -2.12435e-15 0)
(3 -2.81954e-15 0)
(3 -2.32235e-15 0)
(3 -1.0292e-15 0)
(3 -1.32287e-15 0)
(3 -7.50984e-16 0)
(3 -4.82614e-17 0)
(3 2.26666e-16 0)
(3 1.73409e-16 0)
(3 4.98366e-16 0)
(3 5.67781e-16 0)
(3 3.52736e-16 0)
(3 4.93467e-16 0)
(3 -9.96027e-17 0)
(3 -1.06826e-15 0)
(3 -1.21016e-15 0)
(3 -9.90295e-16 0)
(3 -5.63134e-16 0)
(3 -2.16917e-16 0)
(3 4.5989e-16 0)
(3 -3.35365e-16 0)
(3 -1.35899e-15 0)
(3 -1.73426e-15 0)
(3 -2.13478e-15 0)
(3 -1.73213e-15 0)
(3 -5.21831e-16 0)
(3 4.6739e-16 0)
(3 9.1181e-17 0)
(3 -1.09133e-15 0)
(3 -1.44068e-15 0)
(3 -1.3757e-15 0)
(3 -5.19417e-16 0)
(3 1.13439e-15 0)
(3 1.6645e-15 0)
(3 1.6486e-15 0)
(3 2.38152e-15 0)
(3 2.41951e-15 0)
(3 -7.87402e-17 0)
(3 6.18092e-16 0)
(3 8.92887e-16 0)
(3 1.04332e-15 0)
(3 4.90893e-16 0)
(3 6.21642e-17 0)
(3 5.12965e-16 0)
(3 4.41771e-16 0)
(3 -5.47505e-16 0)
(3 -6.37794e-16 0)
(3 -9.67869e-16 0)
(3 -1.00542e-15 0)
(3 -6.44888e-16 0)
(3 -9.24333e-18 0)
(3 5.77554e-16 0)
(3 -9.07355e-16 0)
(3 -1.20813e-15 0)
(3 -1.2324e-15 0)
(3 -1.36944e-15 0)
(3 -1.63831e-15 0)
(3 -1.22892e-15 0)
(3 -9.59005e-16 0)
(3 -7.56922e-16 0)
(3 5.78607e-17 0)
(3 -1.91454e-16 0)
(3 -7.1165e-16 0)
(3 -8.24232e-16 0)
(3 -6.53044e-16 0)
(3 -1.28256e-15 0)
(3 -1.56161e-15 0)
(3 -6.24135e-16 0)
(3 1.88654e-16 0)
(3 -4.41224e-16 0)
(3 -1.31371e-15 0)
(3 -1.79562e-15 0)
(3 -1.19267e-15 0)
(3 -2.66106e-16 0)
(3 -1.02158e-16 0)
(3 -9.74993e-16 0)
(3 -1.71971e-15 0)
(3 -1.6386e-15 0)
(3 -2.33455e-15 0)
(3 -2.10879e-15 0)
(3 4.71559e-16 0)
(3 3.76566e-15 0)
(3 5.03844e-15 0)
(3 3.07041e-15 0)
(3 2.20691e-15 0)
(3 -1.16823e-17 0)
(3 1.62209e-16 0)
(3 5.18663e-16 0)
(3 1.08258e-15 0)
(3 1.03964e-15 0)
(3 8.98705e-16 0)
(3 1.09289e-15 0)
(3 7.08554e-16 0)
(3 -1.72407e-16 0)
(3 -4.18723e-16 0)
(3 -9.74046e-18 0)
(3 5.26364e-16 0)
(3 1.35636e-15 0)
(3 1.65242e-15 0)
(3 1.06795e-15 0)
(3 -8.55957e-16 0)
(3 -1.06605e-15 0)
(3 -1.13376e-15 0)
(3 -1.18731e-15 0)
(3 -1.05177e-15 0)
(3 -9.42916e-16 0)
(3 -7.25052e-16 0)
(3 -1.97536e-16 0)
(3 -1.18894e-16 0)
(3 9.07705e-17 0)
(3 3.50875e-16 0)
(3 9.08099e-16 0)
(3 1.99592e-16 0)
(3 -9.62593e-17 0)
(3 -3.09254e-16 0)
(3 2.60665e-16 0)
(3 1.35409e-15 0)
(3 8.60327e-16 0)
(3 3.71057e-16 0)
(3 2.4455e-16 0)
(3 3.17298e-16 0)
(3 -7.88015e-16 0)
(3 -1.92858e-15 0)
(3 -1.592e-15 0)
(3 -1.42362e-15 0)
(3 -4.95469e-16 0)
(3 -5.72282e-16 0)
(3 -1.53712e-15 0)
(3 -1.35437e-15 0)
(3 1.9814e-15 0)
(3 3.80978e-15 0)
(3 3.60463e-15 0)
(3 1.84042e-15 0)
(3 -1.61706e-16 0)
(3 3.15907e-16 0)
(3 -4.23799e-17 0)
(3 9.35745e-17 0)
(3 3.6632e-16 0)
(3 3.74926e-16 0)
(3 -3.83121e-16 0)
(3 -7.32202e-16 0)
(3 -8.45681e-16 0)
(3 -1.71497e-17 0)
(3 3.62714e-16 0)
(3 1.51166e-15 0)
(3 1.88606e-15 0)
(3 1.55924e-15 0)
(3 1.23339e-15 0)
(3 8.70531e-16 0)
(3 1.84485e-16 0)
(3 -7.84141e-16 0)
(3 -3.51782e-16 0)
(3 2.40786e-16 0)
(3 6.24019e-16 0)
(3 4.32883e-16 0)
(3 -2.62033e-17 0)
(3 -5.88447e-17 0)
(3 5.62941e-16 0)
(3 1.35943e-15 0)
(3 2.13346e-15 0)
(3 2.4269e-15 0)
(3 1.89994e-15 0)
(3 9.82103e-16 0)
(3 5.29345e-16 0)
(3 -2.92022e-16 0)
(3 -4.73301e-17 0)
(3 3.70134e-16 0)
(3 8.05345e-16 0)
(3 4.86517e-16 0)
(3 -1.19481e-15 0)
(3 -1.77334e-15 0)
(3 -4.52393e-16 0)
(3 6.11016e-16 0)
(3 -6.73077e-17 0)
(3 -2.87401e-16 0)
(3 1.04109e-16 0)
(3 9.86048e-16 0)
(3 3.23406e-15 0)
(3 4.57825e-15 0)
(3 3.8933e-15 0)
(3 2.93207e-15 0)
(3 4.42372e-17 0)
(3 -1.86159e-16 0)
(3 -3.92597e-16 0)
(3 -6.58715e-16 0)
(3 -4.86611e-16 0)
(3 -2.99801e-16 0)
(3 -8.26379e-16 0)
(3 -7.40791e-16 0)
(3 -7.29988e-17 0)
(3 1.54836e-16 0)
(3 4.42733e-16 0)
(3 1.72786e-16 0)
(3 -6.18944e-16 0)
(3 -4.47983e-16 0)
(3 1.4764e-16 0)
(3 1.03996e-15 0)
(3 9.25674e-16 0)
(3 8.04951e-16 0)
(3 3.55595e-16 0)
(3 4.9993e-16 0)
(3 1.44338e-15 0)
(3 1.39169e-15 0)
(3 3.57344e-16 0)
(3 4.4281e-16 0)
(3 1.50639e-15 0)
(3 2.64886e-15 0)
(3 2.39688e-15 0)
(3 2.01634e-15 0)
(3 1.20702e-15 0)
(3 9.19213e-16 0)
(3 2.09737e-16 0)
(3 -8.36779e-16 0)
(3 -7.47447e-16 0)
(3 -6.67974e-16 0)
(3 -3.37649e-16 0)
(3 -2.39399e-16 0)
(3 2.536e-16 0)
(3 7.10469e-16 0)
(3 9.65026e-16 0)
(3 6.70736e-16 0)
(3 2.23034e-16 0)
(3 -7.78445e-16 0)
(3 -2.99916e-16 0)
(3 1.81354e-15 0)
(3 3.84688e-15 0)
(3 5.70824e-15 0)
(3 5.33816e-15 0)
(3 4.90549e-15 0)
(3 1.31538e-16 0)
(3 -3.66985e-16 0)
(3 -1.17389e-15 0)
(3 -9.98728e-16 0)
(3 -1.06881e-15 0)
(3 -1.21589e-15 0)
(3 -1.22775e-15 0)
(3 -1.20945e-15 0)
(3 -5.54594e-16 0)
(3 5.97444e-16 0)
(3 9.05013e-16 0)
(3 -1.69441e-16 0)
(3 -8.55312e-16 0)
(3 -1.15544e-15 0)
(3 -1.41648e-15 0)
(3 -3.75114e-16 0)
(3 1.14056e-15 0)
(3 1.74588e-15 0)
(3 1.02834e-15 0)
(3 1.08071e-15 0)
(3 8.6334e-16 0)
(3 5.16629e-16 0)
(3 4.55442e-16 0)
(3 1.55547e-16 0)
(3 -9.45124e-16 0)
(3 -8.08373e-16 0)
(3 -3.96833e-16 0)
(3 -4.44245e-16 0)
(3 -6.58592e-16 0)
(3 -6.65561e-16 0)
(3 -6.47033e-16 0)
(3 2.95934e-16 0)
(3 5.78074e-16 0)
(3 4.3113e-16 0)
(3 1.91766e-16 0)
(3 1.38173e-16 0)
(3 1.3014e-16 0)
(3 -1.09564e-16 0)
(3 -7.82787e-16 0)
(3 -5.648e-16 0)
(3 4.95402e-16 0)
(3 3.23598e-16 0)
(3 -8.78981e-17 0)
(3 2.76054e-15 0)
(3 3.4523e-15 0)
(3 4.69338e-15 0)
(3 5.52084e-15 0)
(3 5.42463e-15 0)
(3 2.84194e-17 0)
(3 7.25241e-17 0)
(3 -1.09288e-16 0)
(3 1.20323e-16 0)
(3 -2.48503e-16 0)
(3 -2.21811e-16 0)
(3 -5.65124e-16 0)
(3 -7.60475e-16 0)
(3 -4.11054e-16 0)
(3 5.27031e-16 0)
(3 5.36691e-16 0)
(3 -3.61235e-16 0)
(3 -3.90579e-16 0)
(3 -4.48523e-16 0)
(3 -3.32856e-16 0)
(3 -4.62565e-16 0)
(3 2.53598e-16 0)
(3 6.08031e-16 0)
(3 9.19845e-16 0)
(3 2.20999e-16 0)
(3 -3.87899e-16 0)
(3 -5.19888e-16 0)
(3 -1.52585e-16 0)
(3 -9.31308e-16 0)
(3 -2.4037e-15 0)
(3 -3.12331e-15 0)
(3 -3.54491e-15 0)
(3 -2.22367e-15 0)
(3 -1.28791e-15 0)
(3 -6.90811e-16 0)
(3 -1.19948e-15 0)
(3 -4.5821e-16 0)
(3 1.18086e-15 0)
(3 1.65107e-15 0)
(3 5.6049e-16 0)
(3 5.62985e-16 0)
(3 1.31621e-16 0)
(3 -6.34306e-16 0)
(3 -6.8401e-16 0)
(3 -2.76327e-16 0)
(3 7.38246e-16 0)
(3 1.96891e-15 0)
(3 2.00658e-15 0)
(3 4.36237e-16 0)
(3 1.25913e-15 0)
(3 2.42463e-15 0)
(3 2.54168e-15 0)
(3 1.96921e-15 0)
(3 -5.15058e-17 0)
(3 7.79242e-17 0)
(3 1.06142e-15 0)
(3 9.05263e-16 0)
(3 6.65058e-16 0)
(3 5.88964e-16 0)
(3 8.5214e-16 0)
(3 1.62173e-15 0)
(3 1.67689e-15 0)
(3 1.12326e-15 0)
(3 4.51613e-16 0)
(3 5.67374e-16 0)
(3 4.15293e-16 0)
(3 8.97765e-16 0)
(3 1.06029e-15 0)
(3 -6.00743e-16 0)
(3 -9.53311e-16 0)
(3 -1.25347e-15 0)
(3 -1.25268e-15 0)
(3 -1.50501e-15 0)
(3 -1.25594e-15 0)
(3 -7.06867e-16 0)
(3 -8.69365e-16 0)
(3 -1.07917e-15 0)
(3 -1.4557e-15 0)
(3 -2.80659e-15 0)
(3 -3.71936e-15 0)
(3 -3.07942e-15 0)
(3 -2.20489e-15 0)
(3 -1.71368e-15 0)
(3 -1.25022e-15 0)
(3 -7.23255e-16 0)
(3 -2.80569e-16 0)
(3 -3.53905e-16 0)
(3 -8.22626e-16 0)
(3 -9.00972e-16 0)
(3 -7.00383e-16 0)
(3 -1.71592e-16 0)
(3 -2.54617e-17 0)
(3 -8.25944e-16 0)
(3 -1.03672e-15 0)
(3 -6.57881e-16 0)
(3 -8.4095e-16 0)
(3 -1.98433e-15 0)
(3 -2.64012e-15 0)
(3 -2.56344e-15 0)
(3 -2.73109e-15 0)
(3 -2.63763e-15 0)
(3 -1.14314e-17 0)
(3 1.12032e-16 0)
(3 4.39617e-16 0)
(3 1.98717e-17 0)
(3 2.27353e-16 0)
(3 2.26085e-16 0)
(3 1.55598e-15 0)
(3 1.78662e-15 0)
(3 1.42771e-15 0)
(3 1.06803e-15 0)
(3 1.03137e-15 0)
(3 2.1109e-15 0)
(3 1.51666e-15 0)
(3 4.28347e-16 0)
(3 2.70929e-16 0)
(3 -6.09693e-17 0)
(3 -4.70123e-16 0)
(3 -9.43313e-16 0)
(3 -1.49143e-15 0)
(3 -1.44079e-15 0)
(3 -1.41667e-15 0)
(3 -1.33541e-15 0)
(3 -9.47116e-16 0)
(3 -1.79991e-16 0)
(3 4.11081e-16 0)
(3 -2.90308e-16 0)
(3 -1.08663e-15 0)
(3 -9.23689e-16 0)
(3 -1.00339e-15 0)
(3 -9.23842e-16 0)
(3 -2.02307e-16 0)
(3 -6.96162e-17 0)
(3 -7.46074e-16 0)
(3 -1.31386e-15 0)
(3 -1.58954e-15 0)
(3 -2.11846e-15 0)
(3 -1.19201e-15 0)
(3 -6.28408e-17 0)
(3 -3.06014e-17 0)
(3 -4.74107e-16 0)
(3 -6.66686e-16 0)
(3 -9.07557e-16 0)
(3 -1.03413e-15 0)
(3 -1.4635e-15 0)
(3 -2.35104e-15 0)
(3 -2.81861e-15 0)
(3 -3.02219e-15 0)
(3 -3.03818e-15 0)
(3 1.51275e-16 0)
(3 -1.98772e-16 0)
(3 -5.38051e-16 0)
(3 -9.0202e-16 0)
(3 -7.07893e-16 0)
(3 -3.89515e-16 0)
(3 -2.61866e-16 0)
(3 -1.49343e-15 0)
(3 -1.69649e-15 0)
(3 -2.47103e-16 0)
(3 1.1052e-15 0)
(3 1.79292e-15 0)
(3 -5.18082e-16 0)
(3 -7.24618e-16 0)
(3 -2.97645e-16 0)
(3 -2.60372e-16 0)
(3 -4.32697e-16 0)
(3 -8.37761e-16 0)
(3 -5.89988e-16 0)
(3 3.43345e-16 0)
(3 2.0359e-16 0)
(3 -3.18819e-16 0)
(3 1.68061e-16 0)
(3 2.91224e-16 0)
(3 1.98053e-16 0)
(3 6.86369e-16 0)
(3 1.12036e-15 0)
(3 2.10166e-16 0)
(3 -3.80717e-16 0)
(3 -3.62523e-16 0)
(3 -1.42772e-16 0)
(3 -2.82423e-16 0)
(3 -1.07944e-15 0)
(3 -8.21703e-16 0)
(3 -2.57895e-16 0)
(3 -4.12219e-16 0)
(3 1.096e-15 0)
(3 1.22243e-15 0)
(3 9.58625e-16 0)
(3 5.22824e-16 0)
(3 -1.02023e-16 0)
(3 -8.37391e-16 0)
(3 -5.97453e-16 0)
(3 7.84283e-16 0)
(3 7.72767e-16 0)
(3 2.26004e-17 0)
(3 -4.62251e-16 0)
(3 -8.99246e-16 0)
(3 -6.37839e-18 0)
(3 -1.79891e-16 0)
(3 -6.17465e-16 0)
(3 -3.794e-16 0)
(3 -7.43702e-17 0)
(3 3.49749e-16 0)
(3 1.01007e-16 0)
(3 1.95308e-16 0)
(3 -3.04162e-18 0)