/*--------------------------------*- C++ -*----------------------------------*\
  =========                 |
  \\      /  F ield         | OpenFOAM: The Open Source CFD Toolbox
   \\    /   O peration     | Website:  https://openfoam.org
    \\  /    A nd           | Version:  7
     \\/     M anipulation  |
\*---------------------------------------------------------------------------*/
FoamFile
{
    version     2.0;
    format      ascii;
    class       volScalarField;
    location    "2.7";
    object      p;
}
// * * * * * * * * * * * * * * * * * * * * * * * * * * * * * * * * * * * * * //

dimensions      [1 -1 -2 0 0 0 0];

internalField   nonuniform List<scalar> 
4608
(
1
1
1
1
1
1
1
1
1
1
1
1
1
1
1
1
1
1
1
1
1
1
1
1
1
1
1
1
1
1
1
1
1
1
1
1
1
1
1
1
1
1
1
1
1
1
1
1
1
1
1
1
1
1
1
1
1
1
1
1
1
1
1
1
1
1
1
1
1
1
1
1
1
1
1
1
1
1
1
1
1
1
1
1
1
1
1
1
1
1
1
1
1
1
1
1
1
1
1
1
1
1
1
1
1
1
1
1
1
1
1
1
1
1
1
1
1
1
1
1
1
1
1
1
1
1
1
1
1
1
1
1
1
1
1
1
1
1
1
1
1
1
1
1
1
1
1
1
1
1
1
1
1
1
1
1
1
1
1
1
1
1
1
1
1
1
1
1
1
1
1
1
1
1
1
1
1
1
1
1
1
1
1
1
1
1
1
1
1
1
1
1
1
1
1
1
1
1
1
1
1
1
1
1
1
1
1
1
1
1
1
1
1
1
1
1
1
1
1
1
1
1
1
1
1
1
1
1
1
1
1
1
1
1
1
1
1
1
1
1
1
1
1
1
1
1
1
1
1
1
1
1
1
1
1
1
1
1
1
1
1
1
1
1
1
1
1
1
1
1
1
1
1
1
1
1
1
1
1
1
1
1
1
1
1
1
1
1
1
1
1
1
1
1
1
1
1
1
1
1
1
1
1
1
1
1
1
1
1
1
1
1
1
1
1
1
1
1
1
1
1
1
1
1
1
1
1
1
1
1
1
1
1
1
1
1
1
1
1
1
1
1
1
1
1
1
1
1
1
1
1
1
1
1
1
1
1
1
1
1
1
1
1
1
1
1
1
1
1
1
1
1
1
1
1
1
1
1
1
1
1
1
1
1
1
1
1
1
1
1
1
1
1
1
1
1
1
1
1
1
1
1
1
1
1
1
1
1
1
1
1
1
1
1
1
1
1
1
1
1
1
1
1
1
1
1
1
1
1
1
1
1
1
1
1
1
1
1
1
1
1
1
1
1
1
1
1
1
1
1
1
1
1
1
1
1
1
1
1
1
1
1
1
1
1
1
1
1
1
1
1
1
1
1
1
1
1
1
1
1
1
1
1
1
1
1
1
1
1
1
1
1
1
1
1
1
1
1
1
1
1
1
1
1
1
1
1
1
1
1
1
1
1
1
1
1
1
1
1
1
1
1
1
1
1
1
1
1
1
1
1
1
1
1
1
1
1
1
1
1
1
1
1
1
1
1
1
1
1
1
1
1
1
1
1
1
1
1
1
1
1
1
1
1
1
1
1
1
1
1
1
1
1
1
1
1
1
1
1
1
1
1
1
1
1
1
1
1
1
1
1
1
1
1
1
1
1
1
1
1
1
1
1
1
1
1
1
1
1
1
1
1
1
1
1
1
1
1
1
1
1
1
1
1
1
1
1
1
1
1
1
1
1
1
1
1
1
1
1
1
1
1
1
1
1
1
1
1
1
1
1
1
1
1
1
1
1
1
1
1
1
1
1
1
1
1
1
1
1
1
1
1
1
1
1
1
1
1
1
1
1
1
1
1
1
1
1
1
1
1
1
1
1
1
1
1
1
1
1
1
1
1
1
1
1
1
1
1
1
1
1
1
1
1
1
1
1
1
1
1
1
1
1
1
1
1
1
1
1
1
1
1
1
1
1
1
1
1
1
1
1
1
1
1
1
1
1
1
1
1
1
1
1
1
1
1
1
1
1
1
1
1
1
1
1
1
1
1
1.29403
1.75728
2.32075
3.0003
3.61748
4.3104
4.85315
5.29699
5.3573
5.15134
4.7298
4.22773
3.79524
3.66044
3.57439
3.57709
3.60131
3.63931
3.68807
3.72696
3.74857
3.75154
3.74799
3.74604
1.00203
1.02242
1.08278
1.21466
1.47789
1.84801
2.37409
2.99119
3.57988
3.81304
4.07287
4.05547
3.93652
3.84084
3.8051
3.74502
3.702
3.67976
3.68665
3.71126
3.73788
3.75431
3.75868
3.75985
0.999995
0.999996
1.00012
1.0001
1.00368
1.02256
1.11048
1.35921
2.00207
2.97061
3.87852
4.2923
4.35374
4.25949
4.11572
3.89603
3.74825
3.69201
3.6772
3.68792
3.71563
3.75376
3.76592
3.77005
1
1
0.999999
0.999998
0.999985
1.00003
0.999968
1.00169
1.03528
1.30408
2.03768
3.11936
3.9535
4.11468
4.02793
3.96589
3.90869
3.81423
3.7257
3.68812
3.68821
3.70904
3.74022
3.75707
1
1
1
1
0.999999
0.999999
0.999995
0.999997
0.999892
1.00161
1.03699
1.3775
2.19091
3.3998
3.8375
4.06022
4.06142
3.99345
3.81523
3.72426
3.6918
3.68179
3.69542
3.71949
1
1
1
1
1
1
1
1
0.999988
0.999989
0.999898
1.00401
1.06812
1.52479
2.48996
3.55912
3.96714
3.94272
3.89429
3.82355
3.77513
3.72156
3.69873
3.70621
1
1
1
1
1
1
1
1
1
0.999999
0.999987
0.999992
0.999976
1.01047
1.16944
1.7892
2.85685
3.65503
3.9286
3.92222
3.88261
3.81206
3.74899
3.72138
1
1
1
1
1
1
1
1
1
1
1
0.999999
0.999996
0.999961
1.00107
1.03237
1.36935
2.26089
3.25622
3.64358
3.79627
3.79191
3.74132
3.69603
1
1
1
1
1
1
1
1
1
1
1
1
1
0.999994
0.999994
0.999987
1.00857
1.12021
1.75826
2.80974
3.65562
3.7433
3.74708
3.71595
1
1
1
1
1
1
1
1
1
1
1
1
1
1
0.999999
0.999997
0.999981
1.00103
1.05306
1.39618
2.37995
3.30932
3.75744
3.78658
1
1
1
1
1
1
1
1
1
1
1
1
1
1
1
1
0.999998
0.999993
1.00031
1.01324
1.23121
1.98529
3.19387
3.46923
1
1
1
1
1
1
1
1
1
1
1
1
1
1
1
1
1
0.999999
0.999997
1.00001
1.00708
1.10776
1.74994
2.78395
1
1
1
1
1
1
1
1
1
1
1
1
1
1
1
1
1
1
0.999999
0.999999
1
1.00203
1.06495
1.53661
1
1
1
1
1
1
1
1
1
1
1
1
1
1
1
1
1
1
1
1
1
0.999999
1.00106
1.03204
1
1
1
1
1
1
1
1
1
1
1
1
1
1
1
1
1
1
1
1
1
1
1
1.00001
1
1
1
1
1
1
1
1
1
1
1
1
1
1
1
1
1
1
1
1
1
1
1
0.999995
1
1
1
1
1
1
1
1
1
1
1
1
1
1
1
1
1
1
1
1
1
1
1
0.999994
1
1
1
1
1
1
1
1
1
1
1
1
1
1
1
1
1
1
1
1
1
0.999999
1.00001
1.00007
1
1
1
1
1
1
1
1
1
1
1
1
1
1
1
1
1
1
1
1
1
0.999998
1.00104
1.03052
1
1
1
1
1
1
1
1
1
1
1
1
1
1
1
1
1
1
0.999999
0.999999
1
1.00207
1.06121
1.49266
1
1
1
1
1
1
1
1
1
1
1
1
1
1
1
1
1
0.999999
0.999997
1.00001
1.00645
1.11451
1.70828
2.74986
1
1
1
1
1
1
1
1
1
1
1
1
1
1
1
1
0.999998
0.999993
1.0003
1.01355
1.23138
1.98438
3.15089
3.52227
1
1
1
1
1
1
1
1
1
1
1
1
1
1
0.999999
0.999997
0.999981
1.00103
1.05238
1.39554
2.41085
3.26321
3.7572
3.79699
1
1
1
1
1
1
1
1
1
1
1
1
1
0.999994
0.999993
0.999987
1.00859
1.1204
1.75356
2.8159
3.66461
3.73093
3.74094
3.71487
1
1
1
1
1
1
1
1
1
1
1
0.999999
0.999996
0.999961
1.00108
1.0323
1.37015
2.25986
3.25176
3.65081
3.79838
3.7886
3.73475
3.69929
1
1
1
1
1
1
1
1
1
0.999999
0.999987
0.999992
0.999976
1.01046
1.16943
1.7892
2.85844
3.65141
3.92914
3.9244
3.88398
3.8106
3.75045
3.72161
1
1
1
1
1
1
1
1
0.999988
0.999989
0.999898
1.00401
1.06812
1.52479
2.48933
3.55999
3.96731
3.94219
3.89399
3.82455
3.7753
3.7206
3.70009
3.70663
1
1
1
1
0.999999
0.999999
0.999995
0.999997
0.999892
1.00161
1.03699
1.3775
2.19099
3.3995
3.83723
4.06046
4.06177
3.99351
3.8144
3.72515
3.69168
3.68175
3.6959
3.71952
1
1
0.999999
0.999998
0.999985
1.00003
0.999968
1.00169
1.03528
1.30408
2.03765
3.11942
3.95358
4.1146
4.02797
3.96587
3.90889
3.81434
3.72518
3.68868
3.68828
3.70874
3.7399
3.75712
0.999995
0.999996
1.00012
1.0001
1.00368
1.02255
1.11047
1.35919
2.00211
2.97054
3.87835
4.29241
4.35376
4.2595
4.11568
3.89583
3.74837
3.69209
3.67726
3.68791
3.71553
3.75365
3.76599
3.77021
1.00203
1.0224
1.08282
1.21468
1.47786
1.84803
2.37402
2.99119
3.58007
3.81301
4.07266
4.0558
3.93663
3.84088
3.80487
3.74484
3.70215
3.67986
3.6867
3.71118
3.73796
3.75437
3.75875
3.75999
1.29402
1.75734
2.32074
3.0001
3.61758
4.31045
4.85298
5.29713
5.35737
5.15134
4.72969
4.22788
3.79538
3.66043
3.5742
3.5771
3.6013
3.6392
3.68788
3.72683
3.74867
3.75166
3.74817
3.74615
2.63574
1.69779
1.15796
0.807143
0.641692
0.652089
0.726868
0.762351
0.767587
0.809895
0.878817
0.932648
0.982423
1.04268
1.0536
1.05152
1.03662
1.03341
1.04506
1.07288
1.08592
1.08184
1.06871
1.11993
1.57138
2.82983
4.55403
6.79383
8.893
9.32102
8.61206
7.56258
6.89782
6.58511
6.39135
6.17528
5.89203
5.6076
5.37154
5.17267
4.99136
4.82311
4.66647
4.51548
4.36305
4.20641
4.04956
3.90141
3.76377
3.63581
3.51509
3.39981
3.2886
3.17742
3.07487
2.99421
2.93324
2.87681
2.8174
2.75118
2.67154
2.5641
2.42931
2.32472
2.26733
2.22589
2.191
2.16293
2.12511
2.08229
2.04793
2.07976
2.24127
2.61479
3.24198
3.94919
4.54616
5.08473
5.47127
5.47815
5.36572
5.15794
4.89099
4.64092
4.40486
4.29118
4.24565
4.21268
4.19927
4.16972
4.12623
4.07638
4.00964
3.88254
3.71414
3.59308
3.35702
2.71301
2.19812
1.81715
1.41345
1.21133
1.16133
1.07004
0.976496
0.94661
0.940833
0.922057
0.925117
0.943789
0.963812
0.972263
0.981668
0.988391
1.00369
1.02973
1.04698
1.05087
1.11801
1.58423
2.64054
3.06628
3.55659
4.32223
5.62702
6.72321
7.42668
7.37394
7.09114
6.76422
6.47826
6.21485
5.92628
5.64646
5.41882
5.22271
5.04329
4.88795
4.74305
4.59229
4.43942
4.28168
4.11608
3.95205
3.80455
3.6785
3.57126
3.47106
3.36745
3.25303
3.13839
3.0424
2.97461
2.91609
2.8557
2.78932
2.70942
2.60366
2.47321
2.37154
2.31308
2.26573
2.2287
2.2013
2.15556
2.15943
2.22725
2.43216
2.78749
3.07992
3.2957
3.59337
3.91306
4.24932
4.69037
4.97785
5.03349
5.00632
4.8727
4.65747
4.43977
4.33539
4.28857
4.2452
4.21236
4.18192
4.14345
4.09875
4.03417
3.90503
3.73564
3.61642
3.66291
3.34309
2.83974
2.41534
2.02665
1.61325
1.39686
1.27019
1.11125
0.976135
0.972906
0.957011
0.931314
0.927362
0.935482
0.965166
0.965895
0.962849
0.971823
0.992875
1.00831
1.14276
1.69747
2.68128
3.3166
3.32771
3.30811
3.33623
3.57638
4.54271
6.0764
7.08942
7.23367
7.01637
6.57016
6.16027
5.8745
5.6242
5.40427
5.1958
4.99817
4.81888
4.65193
4.48847
4.32534
4.1699
4.02268
3.87971
3.75347
3.65085
3.55624
3.45609
3.34085
3.20948
3.07355
2.949
2.8641
2.81023
2.76008
2.70241
2.63451
2.55691
2.47705
2.39218
2.29613
2.21295
2.17953
2.17395
2.19183
2.32278
2.63729
3.05667
3.35419
3.42997
3.3706
3.31129
3.35738
3.58094
4.03602
4.4972
4.77631
4.88882
4.87725
4.71028
4.46179
4.3486
4.30688
4.27602
4.23199
4.18795
4.14074
4.07466
3.97618
3.82514
3.6868
3.60989
3.74061
3.62522
3.31692
2.90187
2.56268
2.14128
1.7458
1.60455
1.48235
1.24631
1.14714
1.12209
1.04961
0.970733
0.974441
0.973803
0.953969
0.944927
0.944998
0.956485
1.11201
1.78003
2.75125
3.29737
3.31606
3.2789
3.18815
3.0927
2.97697
3.06064
3.67996
5.12341
6.46416
6.53858
6.43252
6.16563
5.89774
5.65026
5.40968
5.18594
4.98958
4.81262
4.63857
4.45355
4.26881
4.10335
3.97366
3.87431
3.78014
3.68961
3.59904
3.49133
3.35793
3.21466
3.0662
2.93037
2.83347
2.77203
2.72186
2.66433
2.59828
2.53545
2.47771
2.41219
2.32469
2.22815
2.20691
2.24752
2.44812
2.86999
3.31435
3.58221
3.59551
3.56749
3.44483
3.29599
3.21245
3.22498
3.37784
3.65859
4.05347
4.45567
4.63612
4.59868
4.51744
4.44613
4.41006
4.36174
4.28953
4.22214
4.16277
4.0895
3.95873
3.77755
3.69822
3.64478
3.73648
3.71349
3.58493
3.28683
2.94792
2.63157
2.20602
1.87836
1.76536
1.60782
1.39621
1.27848
1.17341
1.04402
1.0121
0.997465
0.971928
0.95357
0.975934
1.17441
1.9282
2.80836
3.26221
3.29954
3.22685
3.08718
3.00321
2.91943
2.8288
2.74262
2.76444
3.08162
4.19716
5.48985
6.08764
6.0341
5.81488
5.52309
5.28213
5.13985
5.02174
4.86748
4.6691
4.43787
4.21126
4.03313
3.89498
3.78072
3.67944
3.58881
3.50662
3.42449
3.32389
3.20619
3.08557
2.96481
2.82532
2.71642
2.66127
2.62695
2.59738
2.55786
2.51214
2.45131
2.3848
2.33672
2.41431
2.69894
3.11299
3.52292
3.70675
3.70376
3.65281
3.56679
3.45626
3.33471
3.22269
3.13178
3.12177
3.1631
3.332
3.71657
4.15124
4.44312
4.49169
4.47872
4.40851
4.32285
4.26227
4.20949
4.15357
4.07852
3.94918
3.78471
3.67185
3.59264
3.72946
3.72959
3.6985
3.5593
3.27488
2.9703
2.66242
2.30888
2.02807
1.85099
1.68174
1.54097
1.42581
1.23058
1.1234
1.11566
1.10125
1.13364
1.39746
2.17211
3.10209
3.39934
3.35008
3.23135
3.07954
2.9579
2.87818
2.78612
2.69133
2.63531
2.57715
2.51062
2.62798
3.27459
4.45344
5.37747
5.47784
5.43634
5.31716
5.16167
4.99326
4.81701
4.63341
4.4173
4.17626
3.98379
3.86193
3.76144
3.66677
3.57032
3.46834
3.39087
3.32318
3.24749
3.14914
3.00266
2.81322
2.69171
2.62995
2.57538
2.52353
2.48068
2.47063
2.46715
2.51701
2.68527
3.08047
3.44776
3.675
3.81687
3.83029
3.7739
3.70709
3.63204
3.53715
3.40715
3.23775
3.11421
3.07343
3.06223
3.07361
3.1822
3.47814
3.89892
4.23501
4.32192
4.30059
4.28566
4.25911
4.20978
4.13057
4.04417
3.93772
3.80362
3.69048
3.5887
3.72955
3.73837
3.72652
3.6782
3.52977
3.28215
2.97985
2.67628
2.41445
2.17831
1.88453
1.7301
1.66641
1.53874
1.34383
1.24287
1.30204
1.70568
2.62271
3.48897
3.68599
3.55924
3.35249
3.17315
3.02559
2.91808
2.82606
2.7188
2.62336
2.57236
2.50073
2.42957
2.32023
2.33014
2.59277
3.47998
4.55658
5.10073
5.26501
5.15717
4.97577
4.79691
4.61786
4.40822
4.17855
3.97507
3.83602
3.73158
3.63517
3.54049
3.44633
3.35454
3.25828
3.16883
3.07978
2.96098
2.80691
2.68095
2.60341
2.5516
2.50902
2.49796
2.5181
2.68093
3.04952
3.52988
3.84792
3.85944
3.87646
3.87136
3.817
3.75685
3.69723
3.62019
3.52586
3.4044
3.23844
3.12436
3.07917
3.04823
3.03361
3.03492
3.09415
3.29747
3.59681
3.93247
4.14377
4.20179
4.19664
4.16067
4.08846
4.00411
3.92183
3.83889
3.76022
3.64012
3.69987
3.71445
3.73103
3.72211
3.65824
3.51033
3.2923
2.97362
2.69081
2.50342
2.26614
1.98345
1.80529
1.74041
1.62038
1.71771
2.34438
3.38855
4.12477
4.12063
3.95846
3.71082
3.46924
3.26269
3.09111
2.95748
2.8324
2.70644
2.60399
2.53338
2.45173
2.37048
2.27464
2.213
2.14673
2.23176
2.75709
3.7228
4.57553
4.81552
4.79423
4.69207
4.53986
4.36703
4.17652
3.97081
3.80434
3.68827
3.59491
3.50432
3.4126
3.32012
3.22672
3.13585
3.04492
2.9402
2.81709
2.68977
2.59601
2.5588
2.54821
2.60418
2.90131
3.43812
3.9488
4.14691
4.13623
4.05721
3.9777
3.89698
3.82465
3.76099
3.69251
3.61919
3.53528
3.41437
3.25592
3.15125
3.09921
3.05879
3.02728
3.00156
3.00059
3.01398
3.09764
3.24694
3.54353
3.82694
3.948
4.01266
4.0344
4.00049
3.93823
3.88217
3.82746
3.69941
3.69707
3.70154
3.7253
3.7261
3.70333
3.62099
3.47815
3.26302
2.98746
2.71448
2.54387
2.30243
2.07689
1.99063
2.20966
3.14019
4.40357
4.80739
4.70645
4.42592
4.13001
3.87284
3.63383
3.40957
3.21653
3.05762
2.90636
2.76614
2.64964
2.5409
2.43739
2.33513
2.24369
2.1619
2.09742
2.01639
2.01673
2.23854
2.96059
3.93589
4.41637
4.51506
4.44655
4.30178
4.14402
3.95166
3.77542
3.6435
3.54547
3.45752
3.37416
3.29062
3.2021
3.10393
3.00077
2.88896
2.77885
2.69587
2.61612
2.62306
2.77895
3.20526
3.84619
4.28151
4.33444
4.27597
4.16423
4.0716
3.98531
3.90777
3.83759
3.7668
3.69119
3.61656
3.53803
3.42652
3.28235
3.18375
3.12878
3.08397
3.04324
3.01014
2.98239
2.96422
2.93331
2.90839
2.9649
3.18728
3.51684
3.76753
3.91432
3.99788
3.97055
3.92881
3.88266
3.74517
3.75762
3.74912
3.75761
3.75192
3.73259
3.68606
3.59429
3.4465
3.24167
2.99239
2.76569
2.49636
2.53954
3.03638
4.21641
5.42682
5.61703
5.40021
5.02931
4.67118
4.35549
4.08432
3.83533
3.59477
3.37411
3.17309
2.98479
2.82148
2.69224
2.56832
2.46098
2.35748
2.26202
2.17056
2.09349
1.99742
1.93331
1.87125
1.94119
2.37983
3.18538
3.88533
4.18294
4.18634
4.09021
3.93936
3.77315
3.62047
3.50338
3.40783
3.32873
3.25021
3.16138
3.05311
2.94755
2.84906
2.78769
2.72769
2.78006
3.0858
3.66419
4.23909
4.58996
4.61331
4.5321
4.34098
4.15855
4.04485
3.9654
3.90351
3.84115
3.77363
3.69891
3.61829
3.52743
3.42237
3.31583
3.22971
3.16542
3.11133
3.06318
3.01916
2.97545
2.9396
2.90168
2.84309
2.76622
2.7909
2.97109
3.30004
3.60758
3.85261
3.92435
3.90587
3.86587
3.73723
3.59591
3.69794
3.7793
3.77733
3.75707
3.72323
3.65306
3.57554
3.41803
3.23961
3.01944
3.21408
4.22189
5.67753
6.36927
6.3091
5.9874
5.60247
5.24034
4.90869
4.59526
4.30135
4.03029
3.77793
3.54751
3.32829
3.11607
2.9218
2.75201
2.59324
2.45958
2.35922
2.28083
2.20122
2.11504
2.01936
1.91435
1.84179
1.77183
1.77213
1.94837
2.50188
3.29219
3.84308
3.96158
3.93395
3.79195
3.60836
3.47024
3.37108
3.29462
3.21161
3.11586
3.0021
2.90504
2.8441
2.86135
3.02873
3.50959
4.17104
4.6401
4.72742
4.70172
4.62733
4.50449
4.3611
4.20814
4.07293
3.97104
3.89841
3.83164
3.76939
3.70192
3.62028
3.51967
3.41301
3.33018
3.26539
3.20393
3.14563
3.09206
3.03825
2.98094
2.92436
2.86896
2.81138
2.75524
2.6947
2.70123
2.83468
3.11921
3.47908
3.76276
3.82564
3.83211
3.74257
3.47805
3.76929
3.79586
3.76914
3.73159
3.71258
3.67688
3.64728
3.54612
3.55595
4.15437
5.79342
7.26674
7.63211
7.38119
6.78335
6.24743
5.80593
5.43034
5.09197
4.77574
4.47901
4.20116
3.93914
3.69344
3.45647
3.22754
3.01587
2.83077
2.67494
2.54253
2.41682
2.29023
2.17523
2.08191
2.01477
1.95073
1.8693
1.7663
1.70473
1.64746
1.69464
2.03994
2.75802
3.43306
3.70806
3.68938
3.55551
3.40463
3.3059
3.22552
3.15171
3.07649
2.99747
2.94459
3.0169
3.37141
3.9934
4.57792
4.97572
5.01145
4.93746
4.7592
4.5812
4.4641
4.36379
4.24211
4.10604
3.99158
3.90496
3.82763
3.75995
3.69296
3.61341
3.51704
3.4225
3.34806
3.2876
3.23244
3.17854
3.11978
3.05167
2.97878
2.91315
2.85214
2.79187
2.74283
2.69322
2.64586
2.63634
2.71861
2.9421
3.27802
3.551
3.69994
3.67984
2.51254
3.40969
3.68725
3.72088
3.75203
3.75795
3.72568
3.72755
4.00539
5.33112
7.55594
8.5428
8.40825
8.07241
7.60591
7.08433
6.56169
6.06984
5.62078
5.22005
4.8775
4.58618
4.31876
4.05592
3.796
3.54046
3.3041
3.09951
2.91214
2.73315
2.58012
2.46091
2.34681
2.23129
2.12605
2.03428
1.93381
1.82628
1.74236
1.66691
1.60583
1.55706
1.56328
1.74115
2.26067
2.9915
3.46342
3.45848
3.34582
3.24586
3.13784
3.08082
3.06473
3.13649
3.37722
3.891
4.6441
4.98606
5.03437
5.02752
4.97576
4.88054
4.75553
4.60602
4.47723
4.36775
4.25397
4.13357
4.01946
3.91896
3.83099
3.75707
3.68473
3.60011
3.5119
3.43657
3.37054
3.30939
3.25375
3.19995
3.13971
3.06646
2.98006
2.89716
2.83914
2.79164
2.74749
2.70078
2.64216
2.58713
2.5817
2.62359
2.77826
3.02475
3.32893
3.49354
1.37772
2.25465
3.22169
3.59473
3.70685
3.731
3.87589
4.65601
6.58796
8.82996
9.90609
9.77074
9.04821
8.30319
7.80587
7.33772
6.81612
6.28516
5.79463
5.35724
4.97186
4.64837
4.37796
4.13087
3.87838
3.61565
3.36486
3.15152
2.9748
2.81682
2.65189
2.48557
2.37005
2.29728
2.20442
2.08598
1.96492
1.85262
1.76566
1.68806
1.59184
1.53191
1.49538
1.48215
1.56187
1.89712
2.57778
3.0785
3.19599
3.1711
3.11421
3.12228
3.36592
3.92514
4.54675
5.16704
5.55169
5.51792
5.29172
5.026
4.88062
4.78859
4.71146
4.62224
4.50475
4.38289
4.26923
4.16255
4.05651
3.94387
3.83349
3.73457
3.656
3.58774
3.52013
3.4538
3.38973
3.32755
3.26378
3.19822
3.13086
3.05774
2.97675
2.90188
2.84613
2.7984
2.75574
2.71788
2.66884
2.60204
2.54843
2.51294
2.52001
2.59393
2.77232
3.13525
1.0257
1.22043
2.05139
2.90297
3.68512
4.44195
5.6536
7.78092
9.29755
9.87326
9.94904
9.78076
9.33759
8.71461
8.12606
7.53832
6.94596
6.40324
5.93762
5.52222
5.12242
4.75293
4.43149
4.14555
3.89146
3.64696
3.41853
3.21269
3.04041
2.88323
2.70957
2.54928
2.42085
2.29514
2.15624
2.0333
1.94692
1.87661
1.79729
1.70346
1.61088
1.5509
1.49658
1.44698
1.3892
1.40546
1.59089
2.07674
2.60839
3.05496
3.298
3.72318
4.58393
5.17448
5.44636
5.62196
5.59539
5.52069
5.31054
5.07254
4.89143
4.75824
4.67471
4.60001
4.51395
4.41417
4.30602
4.19006
4.07916
3.9667
3.84434
3.73343
3.64344
3.57622
3.53433
3.50048
3.45574
3.38912
3.31127
3.23319
3.15995
3.08887
3.01356
2.94281
2.88129
2.82654
2.77902
2.73485
2.68503
2.6282
2.54882
2.47834
2.43696
2.4322
2.46297
2.72453
1.00037
1.01006
1.18706
1.8399
3.86682
6.11416
8.026
10.0503
10.8905
10.4744
10.0727
9.71585
9.45769
9.01561
8.31496
7.59606
6.97629
6.45195
5.97161
5.56334
5.28009
4.99405
4.65006
4.31015
3.99912
3.70785
3.45912
3.23785
3.01545
2.86088
2.78992
2.68797
2.52733
2.33496
2.17062
2.05545
1.98055
1.8971
1.77783
1.70951
1.6749
1.6209
1.54419
1.453
1.37804
1.33513
1.34293
1.43405
1.7784
2.78673
3.84178
4.78124
5.68096
6.05066
6.03886
5.93481
5.64732
5.37669
5.23755
5.09503
4.94321
4.79068
4.6726
4.58937
4.53952
4.48279
4.38634
4.25257
4.09081
3.93538
3.81425
3.72312
3.65744
3.61238
3.56808
3.50875
3.43398
3.35192
3.26714
3.18783
3.11655
3.05066
2.98048
2.90611
2.86766
2.84804
2.82095
2.78275
2.73198
2.64651
2.53133
2.4435
2.40226
2.38294
2.38701
2.4934
1.00046
1.01812
1.14549
1.98693
3.44601
5.97892
8.48433
9.92933
10.8904
10.6369
10.0054
9.5567
9.25892
8.7872
8.14267
7.52944
7.02702
6.56083
6.10046
5.67401
5.24954
4.85461
4.50662
4.17413
3.91774
3.75523
3.56848
3.34082
3.10893
2.91344
2.74375
2.59643
2.43799
2.26323
2.18139
2.13367
2.06034
1.96116
1.83088
1.71193
1.6243
1.56484
1.49544
1.42294
1.37418
1.33826
1.35057
1.46616
1.94573
2.71944
3.9323
5.07109
5.58858
6.02428
6.07995
5.85309
5.49539
5.2727
5.19286
5.1151
4.98783
4.82967
4.70669
4.61048
4.52798
4.43481
4.31387
4.17542
4.04409
3.92064
3.82226
3.74458
3.67078
3.60544
3.5491
3.49191
3.42876
3.35312
3.2672
3.18523
3.11382
3.04774
2.97798
2.91451
2.87862
2.84385
2.7992
2.75075
2.69363
2.61439
2.51412
2.43846
2.40212
2.38444
2.38935
2.50823
1.02538
1.29641
1.97242
3.09703
3.33023
4.26243
6.03408
7.73096
9.58451
10.0558
9.95074
9.63944
9.15424
8.51917
7.96633
7.46573
6.94621
6.43242
5.98111
5.57991
5.18514
4.81341
4.48682
4.19909
3.92132
3.64053
3.39705
3.19515
3.01355
2.84365
2.68323
2.55126
2.41882
2.28879
2.17036
2.05798
1.95771
1.8727
1.80097
1.70797
1.62041
1.55443
1.48868
1.43365
1.39512
1.40598
1.57994
2.04779
2.74861
2.93784
3.32307
4.02708
4.52693
5.21925
5.4915
5.50927
5.47526
5.39369
5.25967
5.0922
4.95069
4.86677
4.78976
4.69236
4.56661
4.42504
4.27269
4.13116
4.02733
3.95453
3.8838
3.80704
3.72357
3.64161
3.56986
3.50618
3.44855
3.38161
3.30253
3.22111
3.14566
3.07824
3.01507
2.95906
2.90657
2.85203
2.80304
2.75006
2.68161
2.59154
2.5104
2.44897
2.42622
2.43403
2.48295
2.77852
1.4128
2.33355
3.14945
3.66513
3.6914
3.70339
3.91682
4.65797
6.54233
8.90049
9.85565
9.62582
8.86648
8.16621
7.73573
7.35058
6.89088
6.38951
5.89994
5.44446
5.03904
4.68313
4.36877
4.08388
3.81706
3.5579
3.3223
3.13738
2.99733
2.86118
2.70716
2.54027
2.37118
2.23199
2.12466
2.03619
1.94721
1.84749
1.78376
1.73806
1.6752
1.57678
1.50571
1.4605
1.51304
1.85562
2.44454
3.02948
3.24962
3.20178
3.13867
3.17063
3.34681
3.82746
4.50985
5.11678
5.43286
5.45516
5.32769
5.09516
4.88978
4.79734
4.73162
4.63539
4.51149
4.37323
4.24917
4.14016
4.03433
3.92998
3.83662
3.75201
3.67549
3.60856
3.54154
3.4696
3.39985
3.33524
3.26601
3.18752
3.10096
3.01992
2.96219
2.9175
2.87484
2.83295
2.79215
2.74776
2.68607
2.58096
2.49791
2.48276
2.49216
2.5849
2.80763
3.2371
2.71042
3.44542
3.5551
3.65286
3.72118
3.73979
3.73457
3.7567
4.01382
5.37154
7.65271
8.45874
8.297
8.02009
7.61291
7.16689
6.67641
6.18054
5.70217
5.2601
4.86991
4.53378
4.24051
3.97028
3.71833
3.49594
3.3034
3.12437
2.94753
2.77442
2.6066
2.46251
2.35421
2.24211
2.10723
1.9832
1.90547
1.85116
1.79042
1.70449
1.64364
1.57081
1.56589
1.72865
2.27489
2.97092
3.34944
3.43474
3.39252
3.28629
3.14592
3.0803
3.04783
3.09872
3.31859
3.87623
4.55962
5.08708
5.12019
5.06382
4.97644
4.86918
4.71958
4.55628
4.43684
4.33871
4.24642
4.15227
4.05075
3.94802
3.85863
3.77325
3.68123
3.5932
3.5124
3.44106
3.38138
3.32656
3.26865
3.20243
3.11748
3.01027
2.93712
2.89869
2.86797
2.83459
2.79739
2.75485
2.68589
2.58451
2.52918
2.56045
2.71667
2.98945
3.34481
3.59226
3.61027
3.75994
3.72405
3.69919
3.69928
3.71214
3.70029
3.6628
3.55244
3.57315
4.22425
5.77951
7.27037
7.65127
7.41246
6.84717
6.30618
5.85158
5.44845
5.06989
4.7183
4.40005
4.11619
3.86089
3.63141
3.42349
3.23282
3.05489
2.89191
2.73947
2.58592
2.4358
2.29568
2.17258
2.06641
1.98661
1.9146
1.84046
1.76318
1.71263
1.66515
1.72025
2.07572
2.77852
3.52466
3.68817
3.63441
3.52027
3.40871
3.31084
3.21014
3.12772
3.04307
2.97663
2.92478
2.99578
3.35803
4.04277
4.68795
5.01214
5.01222
4.89065
4.66575
4.46403
4.39375
4.33661
4.26103
4.17215
4.06993
3.96678
3.86286
3.75409
3.65141
3.56367
3.48973
3.42889
3.37672
3.32652
3.27345
3.20837
3.11178
2.9957
2.91996
2.88004
2.84618
2.8097
2.77892
2.74824
2.70115
2.64591
2.67766
2.85318
3.15222
3.43724
3.6671
3.71836
3.63512
3.70655
3.75569
3.75621
3.73959
3.71769
3.67386
3.5938
3.42073
3.23191
3.01981
3.21562
4.23069
5.70933
6.45371
6.36379
6.00963
5.6195
5.24265
4.8743
4.53004
4.22314
3.95787
3.72722
3.52378
3.33675
3.16141
2.98734
2.8195
2.65918
2.50567
2.36427
2.2574
2.16626
2.07435
1.97977
1.89539
1.83364
1.77138
1.7794
1.96803
2.56348
3.33865
3.86227
3.96944
3.91556
3.76411
3.59654
3.47286
3.37439
3.28713
3.19335
3.08529
2.96107
2.87761
2.82253
2.84104
3.02909
3.55903
4.25588
4.66319
4.64753
4.55876
4.49751
4.42368
4.34398
4.25415
4.16883
4.08016
3.98759
3.86538
3.71813
3.60435
3.52795
3.46621
3.41464
3.36974
3.32542
3.27839
3.21663
3.11071
2.9804
2.89718
2.85749
2.82762
2.80065
2.78846
2.77197
2.78816
2.87169
3.0921
3.36946
3.54137
3.67659
3.76778
3.72311
3.76747
3.74901
3.74835
3.74157
3.72161
3.68513
3.60682
3.4567
3.2401
2.98805
2.76446
2.4963
2.54206
3.05429
4.25601
5.42583
5.59897
5.39251
5.01373
4.6385
4.31552
4.04747
3.81578
3.60531
3.41012
3.22369
3.05097
2.889
2.74085
2.59848
2.45802
2.31531
2.21874
2.13788
2.05963
1.96798
1.9016
1.86893
1.95657
2.39433
3.21733
3.96211
4.17936
4.14524
4.03454
3.91826
3.78827
3.66053
3.55169
3.44828
3.3513
3.24556
3.12493
2.9932
2.88377
2.81202
2.78105
2.7676
2.84389
3.16624
3.69359
4.24656
4.44114
4.48266
4.40895
4.31368
4.24495
4.17491
4.10022
4.00803
3.86319
3.6844
3.55926
3.49449
3.44943
3.40822
3.36716
3.32525
3.27966
3.2155
3.11014
2.97499
2.87693
2.8372
2.8135
2.81739
2.83272
2.92376
3.1319
3.43133
3.68522
3.76876
3.78365
3.78645
3.74749
3.67321
3.70408
3.71542
3.7205
3.71489
3.70048
3.62876
3.4833
3.2627
2.98485
2.71441
2.54569
2.30385
2.07618
1.99026
2.21165
3.11447
4.35483
4.78641
4.67977
4.39213
4.10096
3.85493
3.63764
3.44331
3.26701
3.1048
2.9538
2.81634
2.68051
2.54639
2.40629
2.26627
2.1922
2.13387
2.0732
2.0019
2.01503
2.2931
3.04762
3.979
4.50308
4.51259
4.43323
4.22305
4.04776
3.92579
3.81245
3.71073
3.61274
3.50805
3.40267
3.28684
3.14759
3.01365
2.91956
2.84567
2.78935
2.73703
2.7119
2.71971
2.83743
3.22452
3.75944
4.10858
4.18255
4.24323
4.26389
4.2095
4.12803
4.02111
3.85794
3.66448
3.52123
3.4694
3.44045
3.40378
3.36022
3.31539
3.26687
3.20222
3.10775
2.97435
2.87005
2.84078
2.84017
2.87543
3.05492
3.38803
3.74982
3.96468
4.04466
4.01858
3.92093
3.7898
3.70557
3.61628
3.70421
3.71772
3.72776
3.71876
3.65717
3.51099
3.29398
2.97416
2.69466
2.50605
2.26522
1.98294
1.80827
1.73954
1.61634
1.70519
2.30895
3.37534
4.1183
4.10764
3.94989
3.71041
3.48254
3.29633
3.13607
2.99643
2.85677
2.73187
2.6133
2.51152
2.4016
2.28648
2.21278
2.17709
2.13385
2.23715
2.79184
3.90968
4.75893
4.90568
4.83037
4.62487
4.41429
4.20931
4.0619
3.95091
3.85195
3.76635
3.67997
3.5799
3.45901
3.29937
3.13446
3.02462
2.95502
2.89143
2.83003
2.77261
2.70685
2.66449
2.60058
2.62679
2.82596
3.28324
3.75419
4.05055
4.21566
4.21487
4.16058
4.04024
3.88771
3.69563
3.51144
3.44513
3.41419
3.38488
3.34459
3.30133
3.2507
3.18492
3.10345
2.98064
2.88971
2.88263
2.94383
3.18127
3.56643
3.96387
4.15111
4.16363
4.14907
4.07936
3.95588
3.79499
3.68311
3.5954
3.72908
3.73718
3.72416
3.67791
3.53107
3.28467
2.98104
2.67708
2.41696
2.1781
1.88157
1.73336
1.66953
1.53712
1.33976
1.24071
1.29727
1.70535
2.646
3.48023
3.70057
3.59711
3.39603
3.20319
3.04467
2.9314
2.82643
2.71994
2.62387
2.53535
2.44012
2.34816
2.27682
2.30319
2.62055
3.54174
4.65942
5.34641
5.34061
5.15695
4.8609
4.5988
4.39837
4.23035
4.08964
3.98492
3.90647
3.83684
3.75283
3.64219
3.48786
3.28149
3.12585
3.04883
2.9848
2.92132
2.87144
2.83377
2.77973
2.68677
2.58039
2.47831
2.46185
2.55902
2.9231
3.39572
3.83973
4.01216
4.02913
4.00293
3.9191
3.75305
3.55082
3.43261
3.38406
3.35059
3.31233
3.26713
3.21744
3.16613
3.11124
3.01317
2.98766
3.0837
3.36296
3.7506
4.05365
4.25948
4.32651
4.29037
4.20437
4.08658
3.96171
3.80144
3.68168
3.5955
3.72771
3.72838
3.69788
3.55891
3.27514
2.97123
2.66173
2.30969
2.02981
1.84968
1.68181
1.54428
1.42746
1.22721
1.12202
1.11563
1.10211
1.13568
1.40901
2.19924
3.06329
3.43893
3.3919
3.25102
3.07431
2.93807
2.84949
2.75591
2.6895
2.62049
2.54228
2.47317
2.586
3.2457
4.51781
5.4258
5.6363
5.57146
5.36234
5.12439
4.89314
4.67718
4.47285
4.29567
4.16711
4.05983
3.96009
3.88375
3.81625
3.70861
3.52138
3.27909
3.12651
3.07053
3.02498
2.97624
2.91609
2.85454
2.775
2.6797
2.56581
2.45487
2.4066
2.36635
2.40407
2.61787
3.07758
3.55794
3.8343
3.91313
3.89487
3.81061
3.62748
3.4629
3.35292
3.2972
3.26286
3.23224
3.19211
3.17596
3.17112
3.22027
3.38576
3.72632
4.02112
4.1927
4.2641
4.32036
4.29655
4.2609
4.19522
4.08854
3.95987
3.8128
3.70206
3.609
3.73586
3.71291
3.58488
3.28715
2.94881
2.63162
2.20443
1.87984
1.76568
1.60672
1.39852
1.28124
1.17245
1.04251
1.01245
0.997464
0.972084
0.953793
0.975906
1.18833
1.8931
2.84015
3.33664
3.30176
3.18569
3.03545
2.95955
2.87294
2.8203
2.7536
2.77688
3.10946
4.17705
5.57435
6.17198
6.0517
5.89172
5.56569
5.28425
5.07792
4.93085
4.76279
4.56717
4.37832
4.24223
4.15679
4.0737
3.96162
3.80996
3.64138
3.47942
3.32523
3.19512
3.10039
3.03945
3.00477
2.97332
2.9096
2.81373
2.68713
2.56921
2.47662
2.41329
2.35567
2.30768
2.30245
2.43021
2.78792
3.24858
3.60785
3.72117
3.71437
3.65138
3.50351
3.35451
3.26974
3.22938
3.22156
3.22133
3.28822
3.50219
3.78117
4.16385
4.43225
4.46374
4.43618
4.36897
4.27362
4.2014
4.15121
4.09834
4.01803
3.91798
3.82614
3.76459
3.65922
3.74079
3.62525
3.31658
2.90192
2.56292
2.14014
1.74562
1.60535
1.48198
1.24584
1.14924
1.12294
1.04771
0.971653
0.976085
0.974196
0.953469
0.94482
0.944297
0.956103
1.11721
1.72554
2.83512
3.28149
3.27076
3.2239
3.15318
3.05408
2.96848
3.0707
3.72659
5.24404
6.51808
6.60895
6.48409
6.1629
5.83047
5.54852
5.29238
5.08263
4.95852
4.84234
4.70281
4.54904
4.39116
4.20943
4.03657
3.88965
3.74437
3.60163
3.46635
3.36347
3.28002
3.20455
3.12866
3.04154
2.94418
2.84791
2.74821
2.64916
2.5624
2.49918
2.43886
2.37363
2.30178
2.24389
2.24534
2.31452
2.54921
2.9487
3.31787
3.52912
3.54722
3.50767
3.37884
3.2681
3.2457
3.26339
3.39131
3.73812
4.14302
4.47622
4.65195
4.65093
4.60154
4.51064
4.3907
4.27947
4.18774
4.10835
4.0454
3.97177
3.89666
3.85132
3.8094
3.70429
3.66301
3.34316
2.83994
2.41563
2.02621
1.61253
1.39734
1.27057
1.11025
0.976438
0.973516
0.956719
0.930941
0.92784
0.936722
0.965966
0.965061
0.961489
0.970505
0.991164
1.00743
1.12644
1.71239
2.74537
3.28325
3.28154
3.26862
3.29682
3.54747
4.5606
6.19755
7.20367
7.25259
7.0024
6.47334
6.06914
5.79869
5.58029
5.35972
5.16836
5.01907
4.86046
4.68625
4.50477
4.33432
4.17155
4.01439
3.86641
3.72528
3.60011
3.5055
3.42665
3.33881
3.22862
3.1074
3.00611
2.91692
2.82507
2.73252
2.6513
2.59259
2.53946
2.47447
2.40014
2.33199
2.26759
2.21352
2.1562
2.16334
2.26356
2.56708
2.94705
3.32131
3.396
3.34805
3.3389
3.42047
3.61161
3.9472
4.41513
4.66653
4.84014
4.86
4.81616
4.7018
4.54769
4.41024
4.28457
4.1547
4.0622
4.00622
3.95065
3.90137
3.86333
3.81703
3.71898
3.35689
2.71335
2.19897
1.81653
1.41251
1.21212
1.16168
1.06976
0.976335
0.946916
0.940918
0.9214
0.924979
0.944199
0.963472
0.972228
0.982174
0.988631
1.00343
1.02971
1.04638
1.04936
1.11916
1.64774
2.63396
3.04267
3.56049
4.30423
5.59516
6.79421
7.57366
7.4472
7.06879
6.70337
6.38058
6.08914
5.87367
5.6886
5.51023
5.33946
5.15709
4.96069
4.75862
4.54993
4.33661
4.15368
4.01679
3.89976
3.79401
3.70816
3.6285
3.54109
3.43688
3.30397
3.15028
3.00533
2.9062
2.83501
2.771
2.71736
2.66789
2.6131
2.55051
2.4819
2.414
2.33409
2.23141
2.13114
2.05108
2.05116
2.11354
2.31875
2.7085
3.129
3.39836
3.7335
4.12045
4.40099
4.61646
4.76234
4.84642
4.87742
4.84667
4.76225
4.65472
4.55129
4.44341
4.29188
4.1321
4.03771
3.98567
3.9603
3.9421
3.90664
3.86308
3.77052
2.63595
1.69821
1.15732
0.806014
0.64215
0.652941
0.727432
0.76164
0.767178
0.810088
0.878939
0.932183
0.982261
1.04277
1.05346
1.051
1.03611
1.03347
1.0453
1.07348
1.08573
1.08102
1.06806
1.13276
1.57173