/*--------------------------------*- C++ -*----------------------------------*\
  =========                 |
  \\      /  F ield         | OpenFOAM: The Open Source CFD Toolbox
   \\    /   O peration     | Website:  https://openfoam.org
    \\  /    A nd           | Version:  7
     \\/     M anipulation  |
\*---------------------------------------------------------------------------*/
FoamFile
{
    version     2.0;
    format      ascii;
    class       volScalarField;
    location    "2.7";
    object      rho;
}
// * * * * * * * * * * * * * * * * * * * * * * * * * * * * * * * * * * * * * //

dimensions      [1 -3 0 0 0 0 0];

internalField   nonuniform List<scalar> 
4608
(
1.40001
1.40001
1.40001
1.40001
1.40001
1.40001
1.40001
1.40001
1.40001
1.40001
1.40001
1.40001
1.40001
1.40001
1.40001
1.40001
1.40001
1.40001
1.40001
1.40001
1.40001
1.40001
1.40001
1.40001
1.40001
1.40001
1.40001
1.40001
1.40001
1.40001
1.40001
1.40001
1.40001
1.40001
1.40001
1.40001
1.40001
1.40001
1.40001
1.40001
1.40001
1.40001
1.40001
1.40001
1.40001
1.40001
1.40001
1.40001
1.40001
1.40001
1.40001
1.40001
1.40001
1.40001
1.40001
1.40001
1.40001
1.40001
1.40001
1.40001
1.40001
1.40001
1.40001
1.40001
1.40001
1.40001
1.40001
1.40001
1.40001
1.40001
1.40001
1.40001
1.40001
1.40001
1.40001
1.40001
1.40001
1.40001
1.40001
1.40001
1.40001
1.40001
1.40001
1.40001
1.40001
1.40001
1.40001
1.40001
1.40001
1.40001
1.40001
1.40001
1.40001
1.40001
1.40001
1.40001
1.40001
1.40001
1.40001
1.40001
1.40001
1.40001
1.40001
1.40001
1.40001
1.40001
1.40001
1.40001
1.40001
1.40001
1.40001
1.40001
1.40001
1.40001
1.40001
1.40001
1.40001
1.40001
1.40001
1.40001
1.40001
1.40001
1.40001
1.40001
1.40001
1.40001
1.40001
1.40001
1.40001
1.40001
1.40001
1.40001
1.40001
1.40001
1.40001
1.40001
1.40001
1.40001
1.40001
1.40001
1.40001
1.40001
1.40001
1.40001
1.40001
1.40001
1.40001
1.40001
1.40001
1.40001
1.40001
1.40001
1.40001
1.40001
1.40001
1.40001
1.40001
1.40001
1.40001
1.40001
1.40001
1.40001
1.40001
1.40001
1.40001
1.40001
1.40001
1.40001
1.40001
1.40001
1.40001
1.40001
1.40001
1.40001
1.40001
1.40001
1.40001
1.40001
1.40001
1.40001
1.40001
1.40001
1.40001
1.40001
1.40001
1.40001
1.40001
1.40001
1.40001
1.40001
1.40001
1.40001
1.40001
1.40001
1.40001
1.40001
1.40001
1.40001
1.40001
1.40001
1.40001
1.40001
1.40001
1.40001
1.40001
1.40001
1.40001
1.40001
1.40001
1.40001
1.40001
1.40001
1.40001
1.40001
1.40001
1.40001
1.40001
1.40001
1.40001
1.40001
1.40001
1.40001
1.40001
1.40001
1.40001
1.40001
1.40001
1.40001
1.40001
1.40001
1.40001
1.40001
1.40001
1.40001
1.40001
1.40001
1.40001
1.40001
1.40001
1.40001
1.40001
1.40001
1.40001
1.40001
1.40001
1.40001
1.40001
1.40001
1.40001
1.40001
1.40001
1.40001
1.40001
1.40001
1.40001
1.40001
1.40001
1.40001
1.40001
1.40001
1.40001
1.40001
1.40001
1.40001
1.40001
1.40001
1.40001
1.40001
1.40001
1.40001
1.40001
1.40001
1.40001
1.40001
1.40001
1.40001
1.40001
1.40001
1.40001
1.40001
1.40001
1.40001
1.40001
1.40001
1.40001
1.40001
1.40001
1.40001
1.40001
1.40001
1.40001
1.40001
1.40001
1.40001
1.40001
1.40001
1.40001
1.40001
1.40001
1.40001
1.40001
1.40001
1.40001
1.40001
1.40001
1.40001
1.40001
1.40001
1.40001
1.40001
1.40001
1.40001
1.40001
1.40001
1.40001
1.40001
1.40001
1.40001
1.40001
1.40001
1.40001
1.40001
1.40001
1.40001
1.40001
1.40001
1.40001
1.40001
1.40001
1.40001
1.40001
1.40001
1.40001
1.40001
1.40001
1.40001
1.40001
1.40001
1.40001
1.40001
1.40001
1.40001
1.40001
1.40001
1.40001
1.40001
1.40001
1.40001
1.40001
1.40001
1.40001
1.40001
1.40001
1.40001
1.40001
1.40001
1.40001
1.40001
1.40001
1.40001
1.40001
1.40001
1.40001
1.40001
1.40001
1.40001
1.40001
1.40001
1.40001
1.40001
1.40001
1.40001
1.40001
1.40001
1.40001
1.40001
1.40001
1.40001
1.40001
1.40001
1.40001
1.40001
1.40001
1.40001
1.40001
1.40001
1.40001
1.40001
1.40001
1.40001
1.40001
1.40001
1.40001
1.40001
1.40001
1.40001
1.40001
1.40001
1.40001
1.40001
1.40001
1.40001
1.40001
1.40001
1.40001
1.40001
1.40001
1.40001
1.40001
1.40001
1.40001
1.40001
1.40001
1.40001
1.40001
1.40001
1.40001
1.40001
1.40001
1.40001
1.40001
1.40001
1.40001
1.40001
1.40001
1.40001
1.40001
1.40001
1.40001
1.40001
1.40001
1.40001
1.40001
1.40001
1.40001
1.40001
1.40001
1.40001
1.40001
1.40001
1.40001
1.40001
1.40001
1.40001
1.40001
1.40001
1.40001
1.40001
1.40001
1.40001
1.40001
1.40001
1.40001
1.40001
1.40001
1.40001
1.40001
1.40001
1.40001
1.40001
1.40001
1.40001
1.40001
1.40001
1.40001
1.40001
1.40001
1.40001
1.40001
1.40001
1.40001
1.40001
1.40001
1.40001
1.40001
1.40001
1.40001
1.40001
1.40001
1.40001
1.40001
1.40001
1.40001
1.40001
1.40001
1.40001
1.40001
1.40001
1.40001
1.40001
1.40001
1.40001
1.40001
1.40001
1.40001
1.40001
1.40001
1.40001
1.40001
1.40001
1.40001
1.40001
1.40001
1.40001
1.40001
1.40001
1.40001
1.40001
1.40001
1.40001
1.40001
1.40001
1.40001
1.40001
1.40001
1.40001
1.40001
1.40001
1.40001
1.40001
1.40001
1.40001
1.40001
1.40001
1.40001
1.40001
1.40001
1.40001
1.40001
1.40001
1.40001
1.40001
1.40001
1.40001
1.40001
1.40001
1.40001
1.40001
1.40001
1.40001
1.40001
1.40001
1.40001
1.40001
1.40001
1.40001
1.40001
1.40001
1.40001
1.40001
1.40001
1.40001
1.40001
1.40001
1.40001
1.40001
1.40001
1.40001
1.40001
1.40001
1.40001
1.40001
1.40001
1.40001
1.40001
1.40001
1.40001
1.40001
1.40001
1.40001
1.40001
1.40001
1.40001
1.40001
1.40001
1.40001
1.40001
1.40001
1.40001
1.40001
1.40001
1.40001
1.40001
1.40001
1.40001
1.40001
1.40001
1.40001
1.40001
1.40001
1.40001
1.40001
1.40001
1.40001
1.40001
1.40001
1.40001
1.40001
1.40001
1.40001
1.40001
1.40001
1.40001
1.40001
1.40001
1.40001
1.40001
1.40001
1.40001
1.40001
1.40001
1.40001
1.40001
1.40001
1.40001
1.40001
1.40001
1.40001
1.40001
1.40001
1.40001
1.40001
1.40001
1.40001
1.40001
1.40001
1.40001
1.40001
1.40001
1.40001
1.40001
1.40001
1.40001
1.40001
1.40001
1.40001
1.40001
1.40001
1.40001
1.40001
1.40001
1.40001
1.40001
1.40001
1.40001
1.40001
1.40001
1.40001
1.40001
1.40001
1.40001
1.40001
1.40001
1.40001
1.40001
1.40001
1.40001
1.40001
1.40001
1.40001
1.40001
1.40001
1.40001
1.40001
1.40001
1.40001
1.40001
1.40001
1.40001
1.40001
1.40001
1.40001
1.40001
1.40001
1.40001
1.40001
1.40001
1.40001
1.40001
1.40001
1.40001
1.40001
1.40001
1.40001
1.40001
1.40001
1.40001
1.40001
1.40001
1.40001
1.40001
1.40001
1.40001
1.40001
1.40001
1.40001
1.40001
1.40001
1.40001
1.40001
1.40001
1.40001
1.40001
1.40001
1.40001
1.40001
1.40001
1.40001
1.40001
1.40001
1.40001
1.40001
1.40001
1.40001
1.40001
1.40001
1.40001
1.40001
1.40001
1.40001
1.40001
1.40001
1.40001
1.40001
1.40001
1.40001
1.40001
1.40001
1.40001
1.40001
1.40001
1.40001
1.40001
1.40001
1.40001
1.40001
1.40001
1.40001
1.40001
1.40001
1.40001
1.40001
1.40001
1.40001
1.40001
1.40001
1.40001
1.40001
1.40001
1.40001
1.40001
1.40001
1.40001
1.40001
1.40001
1.40001
1.40001
1.40001
1.40001
1.40001
1.40001
1.40001
1.40001
1.40001
1.40001
1.40001
1.40001
1.40001
1.67908
2.08332
2.52757
3.01223
3.41136
3.83442
4.14135
4.41132
4.41919
4.29115
4.04044
3.72849
3.44909
3.36213
3.30637
3.30731
3.32269
3.34655
3.37713
3.40165
3.41527
3.41722
3.41507
3.41359
1.40193
1.42072
1.47414
1.58702
1.80352
2.10354
2.51204
2.97545
3.37951
3.52343
3.66726
3.62846
3.5377
3.46934
3.44575
3.40806
3.38098
3.36378
3.36776
3.38365
3.40171
3.4132
3.41694
3.41671
1.4
1.4
1.40012
1.40009
1.40335
1.42052
1.49808
1.70593
2.20237
2.87317
3.45381
3.70453
3.76044
3.7079
3.62044
3.48232
3.38586
3.34806
3.33968
3.34761
3.36803
3.39577
3.4061
3.40751
1.4
1.4
1.4
1.4
1.39999
1.40004
1.39998
1.40153
1.43069
1.64275
2.18089
2.92259
3.43911
3.57951
3.53311
3.48942
3.44946
3.38841
3.33411
3.31661
3.32166
3.33921
3.36387
3.37442
1.40001
1.40001
1.40001
1.4
1.4
1.4
1.4
1.4
1.39991
1.40147
1.43152
1.70053
2.28218
3.08185
3.36608
3.50585
3.50793
3.46869
3.36028
3.30879
3.29476
3.29581
3.30665
3.32046
1.40001
1.40001
1.40001
1.40001
1.40001
1.4
1.4
1.4
1.39999
1.39999
1.39992
1.40366
1.45815
1.81155
2.49061
3.17668
3.43822
3.42749
3.39938
3.3562
3.32955
3.30038
3.28614
3.28898
1.40001
1.40001
1.40001
1.40001
1.40001
1.40001
1.40001
1.40001
1.4
1.4
1.39999
1.4
1.4
1.40947
1.54122
2.01505
2.74705
3.25108
3.41812
3.41401
3.38964
3.34546
3.30652
3.28924
1.40001
1.40001
1.40001
1.40001
1.40001
1.40001
1.40001
1.40001
1.40001
1.40001
1.4
1.4
1.4
1.39997
1.40103
1.42908
1.70074
2.36023
3.01411
3.25355
3.34045
3.33683
3.30417
3.27481
1.40001
1.40001
1.40001
1.40001
1.40001
1.40001
1.40001
1.40001
1.40001
1.40001
1.40001
1.40001
1.4
1.4
1.4
1.4
1.40793
1.50491
2.00126
2.73439
3.26966
3.31735
3.31586
3.29555
1.40001
1.40001
1.40001
1.40001
1.40001
1.40001
1.40001
1.40001
1.40001
1.40001
1.40001
1.40001
1.40001
1.4
1.4
1.4
1.39999
1.40099
1.448
1.73125
2.4526
3.06051
3.34729
3.34962
1.40001
1.40001
1.40001
1.40001
1.40001
1.40001
1.40001
1.40001
1.40001
1.40001
1.40001
1.40001
1.40001
1.40001
1.40001
1.4
1.4
1.4
1.40032
1.41232
1.59945
2.17769
3.00695
3.17301
1.40001
1.40001
1.40001
1.40001
1.40001
1.40001
1.40001
1.40001
1.40001
1.40001
1.40001
1.40001
1.40001
1.40001
1.40001
1.40001
1.4
1.4
1.4
1.40002
1.40675
1.49633
2.00818
2.7442
1.40001
1.40001
1.40001
1.40001
1.40001
1.40001
1.40001
1.40001
1.40001
1.40001
1.40001
1.40001
1.40001
1.40001
1.40001
1.40001
1.40001
1.4
1.4
1.4
1.40001
1.40197
1.45913
1.85063
1.40001
1.40001
1.40001
1.40001
1.40001
1.40001
1.40001
1.40001
1.40001
1.40001
1.40001
1.40001
1.40001
1.40001
1.40001
1.40001
1.40001
1.40001
1.40001
1.4
1.4
1.4
1.40105
1.42999
1.40001
1.40001
1.40001
1.40001
1.40001
1.40001
1.40001
1.40001
1.40001
1.40001
1.40001
1.40001
1.40001
1.40001
1.40001
1.40001
1.40001
1.40001
1.40001
1.40001
1.4
1.4
1.40001
1.40003
1.40001
1.40001
1.40001
1.40001
1.40001
1.40001
1.40001
1.40001
1.40001
1.40001
1.40001
1.40001
1.40001
1.40001
1.40001
1.40001
1.40001
1.40001
1.40001
1.40001
1.40001
1.4
1.4
1.4
1.40001
1.40001
1.40001
1.40001
1.40001
1.40001
1.40001
1.40001
1.40001
1.40001
1.40001
1.40001
1.40001
1.40001
1.40001
1.40001
1.40001
1.40001
1.40001
1.40001
1.40001
1.4
1.4
1.4
1.40001
1.40001
1.40001
1.40001
1.40001
1.40001
1.40001
1.40001
1.40001
1.40001
1.40001
1.40001
1.40001
1.40001
1.40001
1.40001
1.40001
1.40001
1.40001
1.40001
1.40001
1.4
1.40001
1.40009
1.40001
1.40001
1.40001
1.40001
1.40001
1.40001
1.40001
1.40001
1.40001
1.40001
1.40001
1.40001
1.40001
1.40001
1.40001
1.40001
1.40001
1.40001
1.4
1.4
1.40001
1.4
1.40103
1.42844
1.40001
1.40001
1.40001
1.40001
1.40001
1.40001
1.40001
1.40001
1.40001
1.40001
1.40001
1.40001
1.40001
1.40001
1.40001
1.40001
1.40001
1.4
1.4
1.4
1.40001
1.40201
1.45623
1.81225
1.40001
1.40001
1.40001
1.40001
1.40001
1.40001
1.40001
1.40001
1.40001
1.40001
1.40001
1.40001
1.40001
1.40001
1.40001
1.40001
1.4
1.4
1.4
1.40002
1.40613
1.50244
1.97734
2.71413
1.40001
1.40001
1.40001
1.40001
1.40001
1.40001
1.40001
1.40001
1.40001
1.40001
1.40001
1.40001
1.40001
1.40001
1.40001
1.4
1.4
1.4
1.40031
1.41261
1.59958
2.17901
2.97621
3.20043
1.40001
1.40001
1.40001
1.40001
1.40001
1.40001
1.40001
1.40001
1.40001
1.40001
1.40001
1.40001
1.40001
1.4
1.4
1.4
1.39999
1.401
1.44742
1.73008
2.47351
3.03509
3.34545
3.35498
1.40001
1.40001
1.40001
1.40001
1.40001
1.40001
1.40001
1.40001
1.40001
1.40001
1.40001
1.40001
1.4
1.4
1.4
1.4
1.40795
1.50512
1.99793
2.73781
3.27545
3.3097
3.31354
3.2948
1.40001
1.40001
1.40001
1.40001
1.40001
1.40001
1.40001
1.40001
1.40001
1.40001
1.4
1.4
1.4
1.39997
1.40104
1.429
1.70135
2.35964
3.01125
3.25781
3.34183
3.33479
3.30052
3.2771
1.40001
1.40001
1.40001
1.40001
1.40001
1.40001
1.40001
1.40001
1.4
1.4
1.39999
1.4
1.4
1.40946
1.54123
2.01498
2.74807
3.24898
3.41836
3.41526
3.39048
3.34464
3.30743
3.28967
1.40001
1.40001
1.40001
1.40001
1.40001
1.4
1.4
1.4
1.39999
1.39999
1.39992
1.40366
1.45815
1.81157
2.49021
3.17714
3.43836
3.42722
3.39918
3.3568
3.32966
3.29978
3.2871
3.28942
1.40001
1.40001
1.40001
1.4
1.4
1.4
1.4
1.4
1.39991
1.40147
1.43153
1.70052
2.28224
3.08168
3.36592
3.506
3.50816
3.46876
3.35979
3.30941
3.29463
3.29572
3.30697
3.32056
1.4
1.4
1.4
1.4
1.39999
1.40004
1.39998
1.40153
1.43069
1.64275
2.18087
2.92263
3.43917
3.57945
3.53313
3.48942
3.44959
3.38848
3.33382
3.31697
3.32169
3.33894
3.36362
3.37448
1.4
1.4
1.40012
1.40009
1.40335
1.42052
1.49808
1.70592
2.2024
2.87312
3.45368
3.70462
3.76046
3.70791
3.62042
3.4822
3.38591
3.34813
3.33975
3.34762
3.36794
3.39564
3.40612
3.40761
1.40193
1.4207
1.47418
1.58704
1.80349
2.10355
2.51198
2.97545
3.37963
3.52341
3.66711
3.62866
3.53779
3.46938
3.44559
3.40793
3.38107
3.36386
3.3678
3.3836
3.40175
3.41322
3.41697
3.4168
1.67907
2.08337
2.52755
3.0121
3.41143
3.83444
4.14123
4.41143
4.41923
4.29113
4.04036
3.7286
3.4492
3.36212
3.30622
3.30733
3.32269
3.34649
3.37701
3.40157
3.41534
3.41729
3.41518
3.41366
2.64752
1.93174
1.45584
1.11535
0.934553
0.93868
0.999402
1.03253
1.04019
1.08501
1.15375
1.20644
1.25383
1.31248
1.32607
1.32498
1.31151
1.30826
1.31935
1.34697
1.36004
1.35725
1.34599
1.3887
1.72988
2.58717
3.63443
4.8226
5.82584
5.97644
5.64712
5.14935
4.82556
4.66801
4.56957
4.45943
4.31356
4.16403
4.03631
3.92701
3.82697
3.73434
3.6482
3.56425
3.47761
3.387
3.29545
3.20842
3.12686
3.05025
2.97725
2.90689
2.83849
2.76977
2.70616
2.65585
2.61729
2.5808
2.54165
2.49767
2.4449
2.37388
2.28437
2.21438
2.17559
2.14722
2.12301
2.10331
2.0769
2.04717
2.02271
2.04438
2.15332
2.39946
2.79424
3.21627
3.55435
3.84823
4.05127
4.05449
3.99398
3.88287
3.73789
3.59983
3.46888
3.40638
3.38111
3.36163
3.35251
3.3339
3.30765
3.27908
3.24177
3.16927
3.07027
2.9997
3.14758
2.70109
2.32128
2.02642
1.7025
1.52327
1.46608
1.37761
1.28859
1.25309
1.24534
1.22303
1.22468
1.24218
1.26218
1.2698
1.27803
1.28332
1.29685
1.32105
1.33894
1.34079
1.39633
1.75351
2.46804
2.75357
3.06113
3.50632
4.22013
4.78295
5.11433
5.07333
4.92503
4.75834
4.61221
4.4777
4.32933
4.18256
4.06009
3.9531
3.85455
3.76943
3.69059
3.60753
3.52073
3.42947
3.33294
3.23676
3.14972
3.07459
3.00998
2.94913
2.88596
2.81605
2.74562
2.68602
2.64333
2.60566
2.56602
2.52207
2.46931
2.39977
2.3136
2.24575
2.2063
2.17399
2.14843
2.12928
2.09789
2.10053
2.14639
2.28218
2.51096
2.6958
2.82901
3.00656
3.19196
3.38545
3.63087
3.78959
3.8166
3.80119
3.72682
3.60694
3.48632
3.42925
3.4034
3.37848
3.35847
3.33941
3.31616
3.29091
3.25528
3.18155
3.08172
3.01245
3.34308
3.1341
2.78884
2.484
2.19494
1.86528
1.6802
1.57105
1.42755
1.29858
1.29478
1.27887
1.25317
1.2481
1.25566
1.28277
1.2832
1.27959
1.28746
1.30683
1.32054
1.43601
1.86452
2.52606
2.92108
2.93388
2.92289
2.93897
3.07698
3.61496
4.41985
4.91563
4.98299
4.87568
4.65301
4.44476
4.29801
4.16637
4.04864
3.93516
3.82619
3.72757
3.63601
3.54556
3.45312
3.3633
3.27717
3.1928
3.11788
3.05645
2.99929
2.93843
2.86821
2.78776
2.70359
2.62577
2.57206
2.53701
2.5036
2.46488
2.41949
2.36826
2.31576
2.25943
2.19462
2.13774
2.11441
2.11015
2.12236
2.21034
2.41419
2.67594
2.85877
2.90724
2.87158
2.83242
2.85876
2.99125
3.2548
3.51372
3.6686
3.72951
3.72319
3.63133
3.49348
3.43199
3.40908
3.39136
3.36551
3.33911
3.3115
3.27414
3.21884
3.13211
3.05026
3.00541
3.36836
3.30072
3.10348
2.82349
2.5858
2.27624
1.96848
1.857
1.75728
1.55262
1.46221
1.44104
1.3757
1.2981
1.29979
1.29879
1.27909
1.26969
1.26956
1.27997
1.41387
1.92932
2.58837
2.91818
2.92567
2.90158
2.84401
2.78256
2.70378
2.75184
3.11058
3.89913
4.57374
4.62487
4.57254
4.43985
4.30351
4.17282
4.04361
3.92258
3.81493
3.71708
3.6204
3.51736
3.4141
3.32081
3.24654
3.18839
3.13246
3.07806
3.02305
2.95744
2.87591
2.78826
2.69641
2.61148
2.54996
2.51002
2.47667
2.43823
2.39422
2.35277
2.31491
2.27191
2.21324
2.14805
2.13241
2.15938
2.29216
2.5619
2.83202
2.99109
3.00063
2.98443
2.91102
2.81958
2.76584
2.77282
2.86373
3.02838
3.25639
3.48343
3.58404
3.56337
3.51917
3.48049
3.46125
3.43421
3.39222
3.35271
3.31878
3.2778
3.20444
3.10065
3.05391
3.02315
3.34018
3.33048
3.25516
3.06642
2.84238
2.62548
2.31745
2.07099
1.98495
1.85703
1.67567
1.5732
1.48327
1.36783
1.33409
1.31808
1.29234
1.27628
1.29679
1.46227
2.03026
2.61867
2.89786
2.91332
2.86543
2.77334
2.71842
2.66418
2.60422
2.54581
2.55888
2.7508
3.3838
4.07637
4.38167
4.35724
4.24795
4.09557
3.96643
3.89041
3.82678
3.74184
3.63138
3.50209
3.37531
3.2754
3.19685
3.13025
3.06988
3.0149
2.96435
2.9137
2.85158
2.7795
2.70573
2.63061
2.54182
2.47142
2.43508
2.41216
2.39256
2.36625
2.33608
2.29643
2.2528
2.22001
2.2705
2.45283
2.7104
2.95475
3.06103
3.05924
3.02939
2.97845
2.91246
2.83889
2.76918
2.71262
2.7043
2.72939
2.83138
3.05886
3.3087
3.46956
3.49781
3.49137
3.45393
3.40633
3.3712
3.34036
3.30854
3.26698
3.19507
3.10195
3.03585
2.99001
3.31071
3.3162
3.30272
3.22178
3.04365
2.84533
2.63738
2.38631
2.17892
2.04491
1.90929
1.79062
1.69459
1.52953
1.43236
1.42334
1.40908
1.43686
1.64818
2.20172
2.80109
2.97355
2.94123
2.86405
2.76567
2.68702
2.63568
2.57595
2.51357
2.47601
2.43721
2.39373
2.46827
2.85567
3.52168
4.01323
4.06681
4.04496
3.98149
3.89786
3.80661
3.71021
3.60872
3.48851
3.35285
3.24233
3.17144
3.11255
3.05643
2.99858
2.93677
2.88921
2.84778
2.80156
2.74179
2.65116
2.53111
2.4528
2.41261
2.37668
2.34231
2.31389
2.30758
2.30561
2.33786
2.44394
2.68981
2.91013
3.0413
3.12129
3.12907
3.09653
3.05799
3.01411
2.95814
2.88005
2.77619
2.69941
2.67298
2.66648
2.67356
2.74022
2.91817
3.16178
3.34964
3.40065
3.3891
3.38055
3.36541
3.33739
3.29242
3.24402
3.18489
3.10945
3.04383
2.98428
3.29624
3.30576
3.30212
3.27746
3.18987
3.03549
2.83996
2.63591
2.45219
2.28139
2.05992
1.93752
1.88633
1.7821
1.61686
1.5294
1.57495
1.87472
2.49791
3.0337
3.14472
3.06561
2.93522
2.82256
2.72961
2.66145
2.60411
2.53596
2.47348
2.43935
2.39161
2.34409
2.27069
2.27708
2.44335
2.97818
3.58368
3.87331
3.9543
3.89471
3.79539
3.698
3.60073
3.48543
3.35537
3.23639
3.15368
3.09167
3.03443
2.97795
2.9212
2.86533
2.80695
2.75237
2.69763
2.62347
2.52541
2.44404
2.39338
2.35932
2.32997
2.32362
2.33683
2.44127
2.66909
2.95701
3.14277
3.14566
3.1533
3.1501
3.11912
3.08507
3.05088
3.00628
2.95043
2.87679
2.77497
2.70459
2.67678
2.65761
2.64976
2.65084
2.68787
2.81155
2.98712
3.18052
3.30088
3.3328
3.32893
3.30854
3.26777
3.22074
3.17521
3.12877
3.08351
3.01183
3.27665
3.28625
3.29806
3.29376
3.25733
3.16836
3.03205
2.8243
2.63371
2.50415
2.33318
2.1214
1.98528
1.93682
1.83939
1.90511
2.32239
2.97585
3.41153
3.40648
3.30954
3.16012
3.01127
2.88319
2.77645
2.69341
2.6145
2.53293
2.46544
2.42055
2.36714
2.31187
2.24525
2.20353
2.15981
2.21703
2.54876
3.12472
3.60092
3.71988
3.70613
3.64756
3.56294
3.46715
3.35913
3.23844
3.13795
3.06759
3.01145
2.95699
2.90169
2.84576
2.78873
2.73247
2.67559
2.60956
2.53116
2.44914
2.38756
2.36298
2.35501
2.39065
2.57683
2.9001
3.19805
3.31118
3.30435
3.25813
3.21136
3.16453
3.12356
3.08783
3.04908
3.00661
2.95674
2.88319
2.78613
2.72239
2.69102
2.66666
2.64799
2.63263
2.63346
2.64232
2.69391
2.78321
2.95855
3.12366
3.19303
3.22917
3.24149
3.22259
3.18826
3.15759
3.12652
3.04746
3.28032
3.28113
3.29528
3.29651
3.28324
3.2325
3.14264
3.00439
2.82271
2.6378
2.51999
2.34681
2.1834
2.11686
2.25954
2.83953
3.57804
3.8031
3.74676
3.58704
3.41563
3.26432
3.12143
2.9852
2.86632
2.76749
2.67164
2.58133
2.50588
2.43443
2.36472
2.29467
2.23177
2.17509
2.13073
2.0749
2.07381
2.22089
2.67931
3.25062
3.52283
3.56739
3.52622
3.44153
3.34968
3.23574
3.12905
3.04795
2.98762
2.93392
2.8832
2.83199
2.77695
2.71519
2.64973
2.57842
2.50789
2.45431
2.40084
2.4042
2.50099
2.76109
3.13561
3.38395
3.42007
3.38662
3.32297
3.26932
3.21886
3.17413
3.13452
3.09515
3.05275
3.00928
2.962
2.89405
2.80633
2.74674
2.71384
2.68703
2.66243
2.64292
2.62706
2.61656
2.59763
2.5814
2.61619
2.7524
2.95068
3.09841
3.18163
3.2293
3.21378
3.19028
3.16367
3.07812
3.32755
3.31843
3.32107
3.31713
3.30448
3.27417
3.21434
3.11809
2.98346
2.81792
2.66535
2.4787
2.50407
2.80645
3.495
4.14434
4.25392
4.13857
3.9365
3.73726
3.55855
3.40298
3.25776
3.11421
2.97925
2.85355
2.73354
2.62828
2.54463
2.46301
2.39133
2.32121
2.25556
2.19041
2.13429
2.06344
2.01882
1.97567
2.02431
2.31478
2.82015
3.23631
3.39868
3.39315
3.33327
3.24094
3.1405
3.04657
2.97347
2.91396
2.8644
2.81468
2.75801
2.68881
2.62203
2.55849
2.51814
2.4768
2.5077
2.69326
3.03282
3.36388
3.56074
3.5802
3.53693
3.4311
3.32644
3.25977
3.21404
3.17924
3.14463
3.10744
3.06551
3.01839
2.96343
2.89931
2.83466
2.78281
2.74421
2.71178
2.68287
2.65635
2.6296
2.60748
2.58384
2.54625
2.49841
2.51491
2.629
2.8321
3.01541
3.15938
3.19697
3.18548
3.16128
3.0807
3.23982
3.29774
3.34542
3.34326
3.32802
3.30354
3.25504
3.20265
3.09886
2.98205
2.83375
2.94593
3.5151
4.30181
4.66495
4.63621
4.47084
4.2679
4.07211
3.88934
3.71441
3.54833
3.3924
3.24352
3.10351
2.96646
2.83082
2.70518
2.59496
2.49037
2.40073
2.332
2.27665
2.21883
2.15591
2.08661
2.01025
1.95724
1.9067
1.90543
2.02573
2.39615
2.88887
3.21962
3.27564
3.25636
3.168
3.05448
2.96857
2.9057
2.85606
2.80202
2.74001
2.66664
2.60468
2.56196
2.57108
2.67126
2.95564
3.33572
3.59205
3.6546
3.64251
3.60357
3.53579
3.4549
3.36639
3.28785
3.2293
3.18848
3.15145
3.11699
3.07882
3.0309
2.96996
2.90465
2.85423
2.81537
2.77881
2.74418
2.71192
2.67871
2.64265
2.60692
2.57179
2.53461
2.49739
2.4609
2.46637
2.55315
2.73212
2.95034
3.12001
3.15295
3.15461
3.09624
3.19444
3.36134
3.36417
3.34425
3.31729
3.30322
3.27783
3.25653
3.18798
3.18996
3.52238
4.40389
5.14005
5.33102
5.21013
4.91093
4.63705
4.40498
4.20191
4.0152
3.83852
3.67102
3.51194
3.3584
3.21004
3.06235
2.91578
2.77795
2.65661
2.5539
2.46592
2.38025
2.29008
2.20585
2.13706
2.08813
2.04118
1.98119
1.90463
1.85862
1.81299
1.84527
2.08527
2.56217
2.98309
3.13951
3.12494
3.03976
2.94498
2.88076
2.82714
2.7788
2.729
2.67853
2.63747
2.67961
2.89132
3.25109
3.57951
3.79936
3.82192
3.78271
3.68849
3.59241
3.52737
3.46999
3.40018
3.32236
3.25681
3.20752
3.1638
3.12533
3.08668
3.03975
2.98121
2.92289
2.87715
2.84072
2.80837
2.77685
2.74133
2.69869
2.65222
2.61008
2.57049
2.53091
2.49847
2.46555
2.4372
2.43229
2.48601
2.62905
2.83881
3.00463
3.09051
3.07354
2.57021
3.1545
3.30939
3.32373
3.34097
3.34313
3.31864
3.31633
3.47462
4.2029
5.33359
5.82013
5.75622
5.59287
5.36268
5.10116
4.83485
4.57804
4.33505
4.11116
3.91654
3.75044
3.59672
3.44278
3.2863
3.12781
2.97692
2.8436
2.71995
2.6007
2.49766
2.41592
2.33555
2.2522
2.17476
2.1065
2.03152
1.95139
1.88876
1.83087
1.783
1.74256
1.7458
1.87374
2.23464
2.70835
3.00111
2.99723
2.92423
2.8582
2.78661
2.74866
2.73216
2.77457
2.91753
3.21761
3.64184
3.82293
3.85601
3.85405
3.82541
3.7727
3.70492
3.62291
3.54992
3.48645
3.42084
3.35262
3.28813
3.23052
3.17953
3.13647
3.09396
3.04351
2.98989
2.94294
2.90161
2.86409
2.83101
2.79946
2.76331
2.7176
2.66191
2.60747
2.56903
2.53771
2.50911
2.47836
2.43957
2.40419
2.40146
2.42993
2.53118
2.68801
2.87726
2.97267
1.72082
2.38481
3.02552
3.26067
3.327
3.33758
3.42167
3.86975
4.89357
5.99958
6.51295
6.45272
6.10805
5.74018
5.491
5.25623
4.99255
4.71794
4.45452
4.21028
3.98892
3.80094
3.64301
3.49743
3.34529
3.18296
3.02417
2.88614
2.76951
2.66349
2.55124
2.43645
2.35488
2.30204
2.23387
2.14655
2.05712
1.97358
1.90797
1.84824
1.77233
1.72322
1.69326
1.68006
1.74043
1.98313
2.44524
2.76772
2.83866
2.82237
2.78395
2.7852
2.92804
3.25595
3.60899
3.95418
4.15839
4.13742
4.01208
3.86555
3.7876
3.74011
3.69779
3.64732
3.57925
3.50722
3.44098
3.38083
3.32135
3.25611
3.19099
3.13269
3.08597
3.04448
3.00301
2.96186
2.92128
2.8821
2.84286
2.80329
2.76269
2.7174
2.66526
2.6157
2.57839
2.54669
2.51891
2.4945
2.46201
2.4179
2.38309
2.36067
2.36556
2.41401
2.52999
2.7567
1.42396
1.59346
2.23432
2.82145
3.32264
3.7606
4.4625
5.56291
6.24854
6.52954
6.57588
6.49578
6.28207
5.97228
5.67595
5.37898
5.07634
4.7942
4.54521
4.31655
4.08964
3.87457
3.68465
3.51347
3.35867
3.20633
3.06168
2.92912
2.81623
2.7116
2.59326
2.48172
2.39074
2.30065
2.19967
2.10919
2.04524
1.99241
1.93202
1.85959
1.78619
1.73758
1.69335
1.65289
1.60484
1.6164
1.75489
2.10191
2.45984
2.75126
2.90282
3.16403
3.65266
3.96315
4.10898
4.2108
4.19745
4.1553
4.03654
3.90191
3.80198
3.73132
3.68634
3.64321
3.59265
3.53422
3.47169
3.40514
3.34104
3.27537
3.20283
3.13687
3.08312
3.04229
3.01589
2.99387
2.96483
2.92265
2.87448
2.8271
2.78295
2.73922
2.69116
2.64472
2.60392
2.56784
2.53693
2.50841
2.47595
2.4385
2.38629
2.33942
2.31246
2.30766
2.32766
2.49676
1.40036
1.40952
1.56584
2.08125
3.42207
4.68862
5.69639
6.6608
7.00955
6.82051
6.64081
6.47452
6.34985
6.13114
5.78249
5.42043
5.10177
4.82587
4.56804
4.34405
4.18428
4.01879
3.81679
3.61444
3.42675
3.24604
3.08838
2.94586
2.80044
2.69755
2.64806
2.57635
2.46388
2.32848
2.21047
2.12561
2.06972
2.00711
1.9168
1.86363
1.83548
1.79211
1.73091
1.65756
1.59566
1.55955
1.56559
1.63528
1.88874
2.57661
3.22925
3.77291
4.25412
4.4322
4.42624
4.37345
4.22294
4.07807
4.00122
3.92212
3.8385
3.7541
3.68814
3.63974
3.61025
3.57797
3.52269
3.44496
3.3496
3.25787
3.18627
3.13204
3.09292
3.06567
3.03767
2.99932
2.95154
2.90009
2.84806
2.80006
2.75683
2.71586
2.67075
2.62182
2.59606
2.58295
2.5653
2.54078
2.50796
2.45196
2.37587
2.31676
2.28931
2.27468
2.27695
2.34697
1.40045
1.41693
1.52867
2.20615
3.18327
4.64562
5.86711
6.57225
7.03868
6.91653
6.60933
6.39156
6.24752
6.01824
5.70013
5.39115
5.13095
4.8837
4.63671
4.40392
4.16579
3.9379
3.73232
3.53273
3.37714
3.276
3.15763
3.01182
2.86132
2.7324
2.6172
2.51442
2.40237
2.27809
2.21848
2.18235
2.12755
2.05415
1.95682
1.86576
1.79662
1.74879
1.69266
1.6334
1.59224
1.56152
1.57136
1.66287
2.01775
2.54215
3.28622
3.90848
4.19239
4.43387
4.45263
4.329
4.13531
4.01646
3.97649
3.93599
3.86596
3.77588
3.70495
3.6495
3.60263
3.55027
3.48075
3.39893
3.32059
3.24692
3.18944
3.14461
3.10131
3.06153
3.02584
2.98882
2.94819
2.90085
2.84843
2.79896
2.75552
2.71412
2.66892
2.62689
2.60279
2.57983
2.55087
2.51969
2.4829
2.43107
2.3641
2.31303
2.2888
2.27577
2.27872
2.35669
1.42348
1.65309
2.17651
2.95761
3.10446
3.66521
4.61531
5.49469
6.45096
6.64009
6.57497
6.41326
6.17739
5.87471
5.60513
5.3517
5.08015
4.80682
4.56404
4.34508
4.12454
3.91129
3.71907
3.54636
3.37687
3.202
3.04736
2.91742
2.79859
2.68532
2.57597
2.48388
2.38961
2.29642
2.21072
2.12772
2.05284
1.98894
1.93462
1.8627
1.79387
1.74112
1.68752
1.64233
1.60941
1.61661
1.74682
2.08667
2.56001
2.68191
2.9176
3.32216
3.61062
4.01078
4.15136
4.1409
4.11963
4.07621
4.00724
3.92096
3.84315
3.79222
3.74609
3.6906
3.62092
3.54142
3.45387
3.37013
3.30737
3.26358
3.22284
3.17983
3.13197
3.08271
3.03783
2.99709
2.96003
2.91792
2.86937
2.82031
2.77494
2.73337
2.6923
2.65482
2.61965
2.58389
2.55249
2.51868
2.47461
2.41526
2.36086
2.31958
2.30418
2.3093
2.34179
2.53145
1.74748
2.42814
2.98793
3.3165
3.31409
3.31694
3.43948
3.86693
4.89587
6.05251
6.47831
6.36949
6.00886
5.67523
5.46541
5.27
5.03117
4.7665
4.50463
4.25728
4.03237
3.82873
3.643
3.47023
3.30496
3.1427
2.99427
2.87685
2.78647
2.69598
2.59081
2.47466
2.35497
2.25503
2.17706
2.11187
2.04585
1.97047
1.92133
1.88514
1.83565
1.75798
1.70183
1.66365
1.70138
1.94863
2.35658
2.7404
2.87323
2.8405
2.79656
2.81151
2.91596
3.20382
3.59543
3.91735
4.08192
4.09974
4.03327
3.9119
3.80169
3.74648
3.70653
3.65131
3.58213
3.50428
3.43338
3.37007
3.30734
3.24561
3.19109
3.14258
3.09852
3.05836
3.01666
2.97151
2.92779
2.88753
2.84498
2.7972
2.74408
2.69326
2.65591
2.62623
2.59742
2.56946
2.54314
2.51505
2.47505
2.40596
2.35127
2.34127
2.34743
2.40861
2.55378
2.8194
2.68844
3.17137
3.23674
3.29179
3.32267
3.32893
3.32227
3.33368
3.4826
4.22837
5.36956
5.7751
5.70069
5.57016
5.37174
5.14607
4.89228
4.63086
4.37527
4.13585
3.91961
3.72684
3.55253
3.38765
3.23198
3.09447
2.97553
2.86332
2.74945
2.63361
2.51733
2.41522
2.33834
2.25884
2.1621
2.07156
2.01375
1.97233
1.92499
1.85748
1.80954
1.75283
1.74679
1.86458
2.24079
2.69701
2.93995
2.98054
2.95071
2.87951
2.78701
2.74423
2.72094
2.7518
2.88228
3.20633
3.58976
3.88243
3.90578
3.87618
3.82911
3.77036
3.68765
3.59425
3.52653
3.47196
3.41985
3.3658
3.30747
3.24809
3.1962
3.14668
3.09282
3.04048
2.99143
2.94737
2.91028
2.87638
2.84089
2.80033
2.74774
2.68036
2.6344
2.60998
2.5899
2.56767
2.54293
2.51549
2.47055
2.40413
2.36896
2.38972
2.49207
2.66674
2.8879
3.03161
3.26959
3.3549
3.32584
3.30188
3.29747
3.3005
3.2911
3.265
3.19163
3.20062
3.56011
4.39715
5.14359
5.33969
5.22609
4.94364
4.66549
4.42652
4.21146
4.00596
3.81037
3.62791
3.46011
3.3058
3.16585
3.03888
2.9217
2.80931
2.7023
2.59912
2.49344
2.38906
2.29126
2.20432
2.12833
2.07089
2.01741
1.96118
1.90087
1.86134
1.82403
1.86317
2.11072
2.57762
3.03215
3.13428
3.09864
3.02022
2.9444
2.87925
2.81335
2.76067
2.70619
2.66464
2.6254
2.66639
2.88316
3.28083
3.64135
3.82099
3.82312
3.75925
3.63925
3.5268
3.48712
3.455
3.41212
3.36146
3.30315
3.24443
3.18527
3.12282
3.06315
3.01176
2.96761
2.93005
2.8971
2.8655
2.83265
2.79299
2.73426
2.66307
2.61641
2.59156
2.5701
2.54603
2.52543
2.50548
2.47521
2.43929
2.46013
2.57338
2.76224
2.93595
3.07066
3.09392
3.26125
3.30475
3.3315
3.32973
3.31691
3.29939
3.26707
3.21283
3.09984
2.97724
2.83412
2.9469
3.52055
4.31267
4.70287
4.66213
4.48301
4.27852
4.07555
3.87282
3.67923
3.5027
3.34679
3.20893
3.08619
2.97241
2.86396
2.75294
2.64198
2.53357
2.42876
2.33147
2.25715
2.19355
2.12919
2.06123
1.99811
1.95061
1.90346
1.90833
2.03907
2.43668
2.91631
3.23171
3.28223
3.24824
3.15437
3.04914
2.969
2.90455
2.8481
2.78839
2.72018
2.64122
2.58878
2.54767
2.557
2.67028
2.98408
3.38093
3.61492
3.60886
3.56181
3.53037
3.48971
3.44375
3.39185
3.34335
3.29336
3.24137
3.17199
3.08733
3.02163
2.97707
2.93998
2.90793
2.87949
2.85163
2.82285
2.78607
2.72259
2.64327
2.59218
2.56758
2.54844
2.53121
2.52368
2.51311
2.52332
2.57611
2.71456
2.88623
2.98971
3.06485
3.11356
3.08707
3.33409
3.3195
3.31671
3.31121
3.29833
3.27428
3.22261
3.12461
2.98242
2.81514
2.66463
2.47872
2.50578
2.81567
3.51003
4.14633
4.24786
4.13711
3.92916
3.71898
3.53499
3.38027
3.24471
3.11976
3.00217
2.88781
2.77952
2.67526
2.57747
2.48175
2.38623
2.28863
2.22253
2.16699
2.11247
2.04637
1.99836
1.97247
2.03294
2.32384
2.84381
3.28493
3.3931
3.36948
3.30091
3.23027
3.15117
3.07216
3.00331
2.93728
2.87545
2.80895
2.73399
2.6519
2.58248
2.53556
2.51348
2.5003
2.54673
2.74215
3.05414
3.37211
3.47876
3.50658
3.46631
3.4137
3.37437
3.33443
3.29245
3.24088
3.15839
3.05487
2.98248
2.94465
2.91746
2.892
2.86644
2.84051
2.81284
2.7747
2.71172
2.62946
2.56887
2.54436
2.5292
2.53288
2.54302
2.59966
2.72742
2.90949
3.06266
3.11331
3.11816