/*--------------------------------*- C++ -*----------------------------------*\
  =========                 |
  \\      /  F ield         | OpenFOAM: The Open Source CFD Toolbox
   \\    /   O peration     | Website:  https://openfoam.org
    \\  /    A nd           | Version:  7
     \\/     M anipulation  |
\*---------------------------------------------------------------------------*/
FoamFile
{
    version     2.0;
    format      ascii;
    class       volScalarField;
    location    "2.7";
    object      T;
}
// * * * * * * * * * * * * * * * * * * * * * * * * * * * * * * * * * * * * * //

dimensions      [0 0 0 1 0 0 0];

internalField   nonuniform List<scalar> 
4608
(
1
1
1
1
1
1
1
1
1
1
1
1
1
1
1
1
1
1
1
1
1
1
1
1
1
1
1
1
1
1
1
1
1
1
1
1
1
1
1
1
1
1
1
1
1
1
1
1
1
1
1
1
1
1
1
1
1
1
1
1
1
1
1
1
1
1
1
1
1
1
1
1
1
1
1
1
1
1
1
1
1
1
1
1
1
1
1
1
1
1
1
1
1
1
1
1
1
1
1
1
1
1
1
1
1
1
1
1
1
1
1
1
1
1
1
1
1
1
1
1
1
1
1
1
1
1
1
1
1
1
1
1
1
1
1
1
1
1
1
1
1
1
1
1
1
1
1
1
1
1
1
1
1
1
1
1
1
1
1
1
1
1
1
1
1
1
1
1
1
1
1
1
1
1
1
1
1
1
1
1
1
1
1
1
1
1
1
1
1
1
1
1
1
1
1
1
1
1
1
1
1
1
1
1
1
1
1
1
1
1
1
1
1
1
1
1
1
1
1
1
1
1
1
1
1
1
1
1
1
1
1
1
1
1
1
1
1
1
1
1
1
1
1
1
1
1
1
1
1
1
1
1
1
1
1
1
1
1
1
1
1
1
1
1
1
1
1
1
1
1
1
1
1
1
1
1
1
1
1
1
1
1
1
1
1
1
1
1
1
1
1
1
1
1
1
1
1
1
1
1
1
1
1
1
1
1
1
1
1
1
1
1
1
1
1
1
1
1
1
1
1
1
1
1
1
1
1
1
1
1
1
1
1
1
1
1
1
1
1
1
1
1
1
1
1
1
1
1
1
1
1
1
1
1
1
1
1
1
1
1
1
1
1
1
1
1
1
1
1
1
1
1
1
1
1
1
1
1
1
1
1
1
1
1
1
1
1
1
1
1
1
1
1
1
1
1
1
1
1
1
1
1
1
1
1
1
1
1
1
1
1
1
1
1
1
1
1
1
1
1
1
1
1
1
1
1
1
1
1
1
1
1
1
1
1
1
1
1
1
1
1
1
1
1
1
1
1
1
1
1
1
1
1
1
1
1
1
1
1
1
1
1
1
1
1
1
1
1
1
1
1
1
1
1
1
1
1
1
1
1
1
1
1
1
1
1
1
1
1
1
1
1
1
1
1
1
1
1
1
1
1
1
1
1
1
1
1
1
1
1
1
1
1
1
1
1
1
1
1
1
1
1
1
1
1
1
1
1
1
1
1
1
1
1
1
1
1
1
1
1
1
1
1
1
1
1
1
1
1
1
1
1
1
1
1
1
1
1
1
1
1
1
1
1
1
1
1
1
1
1
1
1
1
1
1
1
1
1
1
1
1
1
1
1
1
1
1
1
1
1
1
1
1
1
1
1
1
1
1
1
1
1
1
1
1
1
1
1
1
1
1
1
1
1
1
1
1
1
1
1
1
1
1
1
1
1
1
1
1
1
1
1
1
1
1
1
1
1
1
1
1
1
1
1
1
1
1
1
1
1
1
1
1
1
1
1
1
1
1
1
1
1
1
1
1
1
1
1
1
1
1
1
1
1
1
1
1
1
1
1
1
1
1
1
1
1
1
1
1
1
1
1
1
1
1
1
1
1
1
1
1
1
1
1
1
1
1
1
1
1
1
1
1
1
1
1
1
1
1
1
1
1
1
1
1
1
1
1
1
1
1
1
1
1
1
1
1
1
1
1
1
1
1
1
1
1
1
1
1
1
1
1
1
1
1
1
1
1
1
1
1
1
1
1
1
1
1
1
1.07895
1.18091
1.28545
1.39446
1.48459
1.57379
1.64063
1.68109
1.6972
1.68065
1.63887
1.58747
1.54051
1.52422
1.51349
1.5142
1.5174
1.52248
1.52891
1.53389
1.53663
1.53698
1.53648
1.53636
1.00065
1.00752
1.02833
1.07152
1.14724
1.22994
1.32313
1.40741
1.48301
1.51508
1.55485
1.56476
1.55784
1.54992
1.54601
1.53843
1.53293
1.53152
1.53257
1.53556
1.53836
1.53992
1.54003
1.54061
0.999998
0.999999
1.00004
1.00004
1.00128
1.00779
1.03778
1.11546
1.27268
1.44749
1.57216
1.62214
1.62089
1.60827
1.59152
1.56633
1.54985
1.54382
1.5415
1.54233
1.5445
1.5476
1.54791
1.54896
1
1
1
0.999999
0.999995
1.00001
0.999986
1.0006
1.01307
1.11138
1.30807
1.49427
1.6094
1.60932
1.59608
1.59117
1.58639
1.57594
1.56444
1.55683
1.5545
1.55506
1.55664
1.55876
1
1
1
1
1
1
0.999999
0.999999
0.99996
1.00057
1.01416
1.13406
1.34401
1.54444
1.59607
1.62138
1.6209
1.6118
1.58955
1.5758
1.56872
1.56396
1.56461
1.56825
1
1
1
1
1
1
1
1
0.999996
0.999997
0.99996
1.00139
1.02552
1.17839
1.39964
1.56855
1.61537
1.61046
1.60383
1.59495
1.58736
1.57867
1.57578
1.57761
1
1
1
1
1
1
1
1
1
1
0.999996
0.999998
0.999981
1.00368
1.06229
1.24309
1.45596
1.57396
1.60909
1.60841
1.60362
1.59527
1.58735
1.58394
1
1
1
1
1
1
1
1
1
1
1
1
0.999999
0.999986
1.00034
1.01137
1.12722
1.34108
1.51246
1.56784
1.59104
1.59094
1.58523
1.58008
1
1
1
1
1
1
1
1
1
1
1
1
1
0.999998
0.999999
0.999991
1.00289
1.04211
1.23001
1.43858
1.56527
1.57977
1.58207
1.5786
1
1
1
1
1
1
1
1
1
1
1
1
1
1
1
0.999999
0.999993
1.00032
1.01816
1.12904
1.35854
1.51382
1.57155
1.58264
1
1
1
1
1
1
1
1
1
1
1
1
1
1
1
1
0.999999
0.999998
1.00009
1.0044
1.07768
1.27631
1.48703
1.53071
1
1
1
1
1
1
1
1
1
1
1
1
1
1
1
1
1
1
0.999999
1
1.00225
1.03645
1.21998
1.42028
1
1
1
1
1
1
1
1
1
1
1
1
1
1
1
1
1
1
1
1
0.999999
1.00062
1.0218
1.16244
1
1
1
1
1
1
1
1
1
1
1
1
1
1
1
1
1
1
1
1
1
0.999999
1.00032
1.0104
1
1
1
1
1
1
1
1
1
1
1
1
1
1
1
1
1
1
1
1
1
1
1
0.999995
1
1
1
1
1
1
1
1
1
1
1
1
1
1
1
1
1
1
1
1
1
1
1
0.999998
1
1
1
1
1
1
1
1
1
1
1
1
1
1
1
1
1
1
1
1
1
1
1
0.999998
1
1
1
1
1
1
1
1
1
1
1
1
1
1
1
1
1
1
1
1
1
1
1
1.00001
1
1
1
1
1
1
1
1
1
1
1
1
1
1
1
1
1
1
1
1
1
0.999999
1.0003
1.01001
1
1
1
1
1
1
1
1
1
1
1
1
1
1
1
1
1
1
1
1
0.999999
1.00063
1.02024
1.15312
1
1
1
1
1
1
1
1
1
1
1
1
1
1
1
1
1
1
0.999999
1
1.00207
1.03852
1.20951
1.41843
1
1
1
1
1
1
1
1
1
1
1
1
1
1
1
1
0.999999
0.999998
1.00008
1.00451
1.07774
1.27496
1.48218
1.54079
1
1
1
1
1
1
1
1
1
1
1
1
1
1
1
0.999999
0.999992
1.00032
1.0179
1.12929
1.36454
1.50523
1.57232
1.58445
1
1
1
1
1
1
1
1
1
1
1
1
1
0.999998
0.999999
0.999991
1.0029
1.04215
1.22877
1.43994
1.56634
1.57818
1.58058
1.5785
1
1
1
1
1
1
1
1
1
1
1
1
0.999999
0.999986
1.00034
1.01135
1.12746
1.3408
1.51182
1.56889
1.59127
1.59052
1.58419
1.58037
1
1
1
1
1
1
1
1
1
1
0.999996
0.999998
0.999981
1.00368
1.06227
1.24313
1.45623
1.57342
1.6092
1.60871
1.60378
1.59505
1.58753
1.58383
1
1
1
1
1
1
1
1
0.999996
0.999997
0.99996
1.00139
1.02553
1.17838
1.39951
1.5687
1.61538
1.61037
1.6038
1.59509
1.58738
1.57855
1.5759
1.57757
1
1
1
1
1
1
0.999999
0.999999
0.99996
1.00057
1.01416
1.13407
1.34403
1.54439
1.59604
1.62141
1.62094
1.6118
1.58944
1.57588
1.56873
1.56399
1.56466
1.56821
1
1
1
0.999999
0.999995
1.00001
0.999986
1.0006
1.01307
1.11138
1.30806
1.49427
1.60941
1.60931
1.59608
1.59117
1.58641
1.57595
1.56435
1.5569
1.55451
1.55506
1.55662
1.55876
0.999998
0.999999
1.00004
1.00004
1.00128
1.00779
1.03777
1.11546
1.27269
1.44748
1.57215
1.62214
1.62089
1.60827
1.59152
1.5663
1.54988
1.54383
1.54148
1.54232
1.54449
1.54761
1.54792
1.54898
1.00065
1.00751
1.02834
1.07153
1.14722
1.22994
1.32312
1.40741
1.48304
1.51508
1.55484
1.5648
1.55784
1.54992
1.54599
1.53841
1.53296
1.53152
1.53257
1.53555
1.53837
1.53993
1.54004
1.54063
1.07895
1.18092
1.28545
1.39443
1.4846
1.5738
1.64062
1.68109
1.69721
1.68066
1.63886
1.58747
1.54052
1.52422
1.51348
1.5142
1.5174
1.52246
1.52888
1.53387
1.53664
1.53699
1.53651
1.53637
1.39378
1.23046
1.11355
1.01314
0.961286
0.972565
1.01823
1.03367
1.03311
1.04502
1.06639
1.08228
1.09696
1.11221
1.11234
1.11106
1.10657
1.10588
1.10895
1.11512
1.11783
1.11592
1.1116
1.12904
1.27173
1.53132
1.75424
1.97225
2.13707
2.18349
2.13506
2.05611
2.00122
1.97497
1.95815
1.93868
1.91231
1.88535
1.86313
1.84409
1.82597
1.80819
1.79077
1.77364
1.75646
1.73871
1.72037
1.70239
1.68517
1.66876
1.65292
1.63741
1.62201
1.60605
1.59076
1.57837
1.56901
1.56058
1.5519
1.5421
1.52978
1.51219
1.48883
1.46977
1.45904
1.45129
1.44484
1.43969
1.4325
1.42402
1.41746
1.42423
1.45719
1.52564
1.62434
1.71904
1.79066
1.84985
1.89071
1.89159
1.88084
1.85974
1.83189
1.80489
1.77776
1.76365
1.75798
1.75444
1.75361
1.75099
1.74648
1.74041
1.73162
1.71509
1.6936
1.67694
1.49316
1.40618
1.32572
1.25543
1.16231
1.11331
1.10899
1.08743
1.06092
1.05759
1.05768
1.05548
1.05756
1.0637
1.06906
1.07196
1.07536
1.07826
1.08353
1.09128
1.09473
1.09728
1.12095
1.26485
1.49785
1.559
1.6266
1.72578
1.86673
1.96793
2.03299
2.03487
2.01575
1.99018
1.96643
1.94314
1.91642
1.89001
1.86852
1.84964
1.83176
1.81544
1.79925
1.78217
1.76532
1.7479
1.72896
1.70939
1.69107
1.67499
1.66107
1.64777
1.63358
1.61725
1.60028
1.58576
1.57547
1.5668
1.55805
1.54836
1.53614
1.51896
1.49659
1.47842
1.46777
1.45909
1.45231
1.44735
1.43849
1.43926
1.45275
1.49201
1.55418
1.59949
1.63096
1.67325
1.71628
1.75725
1.80853
1.83899
1.84638
1.84386
1.83047
1.80776
1.78288
1.76994
1.76412
1.75916
1.75595
1.75322
1.74927
1.74367
1.73498
1.71836
1.69707
1.68069
1.53394
1.49336
1.42556
1.36131
1.29266
1.21084
1.16392
1.1319
1.08981
1.05237
1.05197
1.04766
1.04044
1.04023
1.04302
1.05338
1.05381
1.05346
1.05677
1.06367
1.06899
1.11411
1.27457
1.48604
1.58957
1.58793
1.58452
1.58925
1.62723
1.7593
1.92472
2.01912
2.03235
2.01468
1.97684
1.94035
1.91352
1.88987
1.86878
1.8485
1.82883
1.80988
1.79117
1.77233
1.75363
1.73576
1.71849
1.70121
1.6854
1.67227
1.65998
1.64664
1.6307
1.61179
1.59158
1.57234
1.55897
1.55078
1.54342
1.53492
1.52443
1.51153
1.49751
1.48226
1.46476
1.44926
1.44312
1.44233
1.44583
1.47123
1.52938
1.5992
1.64263
1.65173
1.64329
1.6367
1.64419
1.676
1.73603
1.79186
1.82273
1.83519
1.83396
1.81598
1.78805
1.77391
1.7687
1.7652
1.76045
1.7559
1.75058
1.7423
1.7294
1.70978
1.69216
1.68158
1.55473
1.53764
1.49629
1.43887
1.38749
1.317
1.24163
1.20968
1.18097
1.1238
1.09834
1.09014
1.06815
1.04694
1.04957
1.04969
1.04415
1.04191
1.04209
1.04618
1.10111
1.29167
1.4881
1.58192
1.58682
1.58206
1.56941
1.55605
1.54146
1.55711
1.65627
1.83959
1.97866
1.97931
1.96949
1.94419
1.91863
1.89569
1.87298
1.85091
1.83108
1.81263
1.79373
1.77263
1.75049
1.72991
1.71356
1.70119
1.68948
1.67815
1.66675
1.65274
1.63466
1.61411
1.592
1.57096
1.55566
1.54614
1.53861
1.52983
1.51933
1.5087
1.49846
1.48645
1.4705
1.45221
1.44892
1.45715
1.49526
1.56836
1.63844
1.67669
1.67756
1.67352
1.65674
1.63656
1.62607
1.6283
1.65134
1.69134
1.74269
1.79075
1.81097
1.80676
1.79714
1.78843
1.78378
1.77813
1.77034
1.76306
1.75604
1.7467
1.72955
1.70564
1.69538
1.68788
1.56611
1.56101
1.54183
1.50063
1.45199
1.40325
1.33269
1.26978
1.24512
1.21213
1.16652
1.13773
1.10754
1.06858
1.0621
1.05947
1.0529
1.04601
1.05361
1.1244
1.32963
1.50142
1.57603
1.5856
1.57659
1.55843
1.54668
1.53414
1.52074
1.50823
1.51247
1.56837
1.73652
1.88546
1.94509
1.93879
1.91642
1.88798
1.8644
1.84963
1.83717
1.82116
1.80008
1.7741
1.74674
1.72388
1.70574
1.69093
1.67799
1.66651
1.65611
1.64544
1.63189
1.61492
1.59654
1.57787
1.55615
1.5388
1.53005
1.52466
1.51985
1.51337
1.50552
1.49443
1.48204
1.47361
1.48868
1.54048
1.60795
1.66921
1.69533
1.69496
1.68811
1.67655
1.6614
1.64452
1.62929
1.61634
1.61613
1.62247
1.64754
1.70103
1.75651
1.79285
1.7978
1.79593
1.78693
1.7767
1.77005
1.76428
1.75758
1.74778
1.73044
1.70816
1.69331
1.68217
1.57708
1.57453
1.56777
1.54667
1.50636
1.46149
1.4133
1.35458
1.30308
1.26724
1.23315
1.20482
1.17795
1.12637
1.09802
1.09737
1.09415
1.10456
1.18704
1.38117
1.55045
1.60048
1.59462
1.57955
1.55889
1.54114
1.52881
1.51423
1.49901
1.49008
1.48039
1.46837
1.49059
1.60538
1.77042
1.87592
1.88575
1.88157
1.86967
1.85393
1.83644
1.81764
1.79754
1.77275
1.74382
1.72016
1.70482
1.69187
1.67957
1.66695
1.65341
1.64309
1.63372
1.62285
1.60801
1.58562
1.55605
1.53637
1.52612
1.51705
1.50833
1.50092
1.49892
1.49809
1.50729
1.53825
1.60334
1.65865
1.69172
1.712
1.71375
1.70626
1.69717
1.68702
1.67404
1.65623
1.63277
1.61513
1.60975
1.60779
1.60949
1.62582
1.66865
1.7264
1.77005
1.77928
1.77653
1.77484
1.77178
1.76597
1.75641
1.74532
1.73093
1.71255
1.69743
1.68356
1.58404
1.58322
1.57994
1.57119
1.54919
1.51377
1.46897
1.42144
1.37846
1.33675
1.2808
1.25013
1.23678
1.20883
1.16359
1.13772
1.15741
1.27377
1.46995
1.61011
1.64097
1.62544
1.59903
1.5739
1.55181
1.535
1.51933
1.50095
1.48484
1.47634
1.46388
1.45106
1.43055
1.43263
1.48562
1.6359
1.78008
1.84365
1.86406
1.85382
1.83541
1.81603
1.79548
1.77067
1.74347
1.71955
1.70292
1.68978
1.67717
1.66447
1.65168
1.63903
1.62511
1.61184
1.59833
1.58011
1.55606
1.53571
1.52286
1.5141
1.50759
1.50505
1.5086
1.53744
1.59955
1.67123
1.71413
1.71768
1.72107
1.72056
1.71325
1.70486
1.69661
1.6859
1.67305
1.65677
1.63383
1.6173
1.61046
1.60578
1.60282
1.60285
1.61162
1.64197
1.68575
1.731
1.7575
1.76504
1.76493
1.76058
1.75161
1.74052
1.7292
1.71776
1.70725
1.69205
1.58084
1.58243
1.5838
1.58207
1.57232
1.55111
1.52018
1.47402
1.43036
1.3996
1.35978
1.30896
1.27308
1.25804
1.23331
1.26229
1.41326
1.59416
1.6927
1.69351
1.67451
1.64398
1.61293
1.58428
1.55867
1.53726
1.51669
1.49591
1.47868
1.46526
1.45003
1.4355
1.41833
1.40602
1.39152
1.40931
1.51444
1.66797
1.77892
1.81236
1.81104
1.80091
1.78387
1.76337
1.74067
1.71662
1.69732
1.68327
1.67125
1.65914
1.64651
1.63337
1.61989
1.60668
1.59325
1.57739
1.55815
1.53756
1.52224
1.51602
1.51486
1.52506
1.5763
1.65973
1.72866
1.75336
1.75246
1.74336
1.73409
1.72404
1.71424
1.70521
1.69544
1.68525
1.67394
1.65793
1.63607
1.62055
1.61237
1.60588
1.60053
1.5962
1.59518
1.59693
1.60982
1.63327
1.67682
1.71521
1.73103
1.73969
1.74246
1.73795
1.72932
1.72127
1.71387
1.69951
1.57787
1.57938
1.5827
1.58245
1.57914
1.56826
1.54947
1.52052
1.48172
1.44071
1.41327
1.37353
1.33171
1.31652
1.3691
1.54824
1.72301
1.76971
1.7586
1.72742
1.69281
1.66099
1.62982
1.59903
1.57106
1.54678
1.52301
1.50024
1.48032
1.46123
1.44303
1.42469
1.40748
1.39152
1.37811
1.36052
1.36147
1.41113
1.54698
1.69514
1.75511
1.77191
1.7654
1.74996
1.732
1.70976
1.6892
1.67355
1.66141
1.64985
1.6384
1.62673
1.61434
1.60045
1.58548
1.56862
1.55127
1.5378
1.52554
1.52745
1.5556
1.62522
1.71727
1.77134
1.7743
1.76766
1.75444
1.74356
1.73336
1.72359
1.71402
1.70381
1.6928
1.68253
1.67227
1.65759
1.63748
1.62275
1.61406
1.60682
1.60025
1.59453
1.58936
1.58602
1.58092
1.57735
1.58661
1.6212
1.66863
1.70234
1.72241
1.73321
1.72967
1.7241
1.71818
1.7034
1.58095
1.58171
1.58403
1.58351
1.58138
1.57613
1.56549
1.54746
1.52117
1.48669
1.45271
1.40998
1.41984
1.51471
1.68898
1.83324
1.84862
1.8268
1.78866
1.74986
1.71354
1.68031
1.64821
1.61604
1.58556
1.55678
1.52868
1.50291
1.48122
1.45986
1.44078
1.42188
1.40401
1.38732
1.37324
1.35521
1.34071
1.32601
1.34252
1.43935
1.58132
1.68077
1.72306
1.72727
1.71792
1.7017
1.68203
1.66373
1.64951
1.63728
1.62695
1.61664
1.60477
1.58969
1.57381
1.559
1.54987
1.54182
1.55206
1.60406
1.69146
1.76426
1.80467
1.80399
1.79392
1.77127
1.75021
1.73718
1.72729
1.71894
1.7101
1.70014
1.68928
1.67825
1.66645
1.65258
1.63765
1.62483
1.61489
1.60628
1.59846
1.59122
1.58414
1.57833
1.57222
1.56322
1.55008
1.55365
1.58218
1.63133
1.67494
1.70719
1.71853
1.71661
1.71204
1.69836
1.55388
1.56991
1.58158
1.58177
1.58049
1.57787
1.5712
1.56301
1.5442
1.52092
1.49174
1.52744
1.68151
1.84773
1.91149
1.90517
1.8749
1.83779
1.80165
1.76693
1.73201
1.69712
1.66326
1.63067
1.6003
1.57077
1.54108
1.51211
1.48473
1.45784
1.43432
1.41635
1.40258
1.38889
1.37346
1.35488
1.33322
1.31742
1.30098
1.30207
1.34654
1.46178
1.59546
1.67111
1.69318
1.69132
1.67574
1.65388
1.6366
1.62423
1.61498
1.60465
1.59204
1.57613
1.56145
1.55418
1.55806
1.58736
1.66239
1.75059
1.80849
1.81098
1.80711
1.79774
1.78357
1.76722
1.75007
1.7343
1.72157
1.71172
1.70218
1.69304
1.68334
1.67224
1.65913
1.64503
1.63346
1.62379
1.61419
1.60481
1.59625
1.58791
1.57922
1.57048
1.56177
1.55288
1.54455
1.53301
1.53333
1.55438
1.59836
1.6509
1.68842
1.6987
1.70068
1.69225
1.5243
1.56992
1.57965
1.57788
1.57485
1.57351
1.57044
1.56799
1.55729
1.56063
1.6512
1.84174
1.97926
2.0043
1.98339
1.93379
1.88621
1.84526
1.8093
1.77545
1.74183
1.70815
1.67476
1.64209
1.61083
1.58019
1.54969
1.51991
1.49178
1.46635
1.4435
1.42151
1.4001
1.38057
1.36387
1.35082
1.33797
1.32094
1.29833
1.28409
1.27218
1.28572
1.36957
1.50702
1.61118
1.65354
1.65288
1.63754
1.61852
1.60662
1.59728
1.58788
1.57827
1.56671
1.56303
1.57623
1.63247
1.71967
1.7905
1.83348
1.83574
1.82738
1.8064
1.78535
1.77179
1.76062
1.74666
1.73024
1.71586
1.70442
1.69375
1.68428
1.67499
1.66421
1.65164
1.63931
1.62915
1.62024
1.61141
1.60253
1.59328
1.58313
1.57238
1.56257
1.55341
1.54436
1.53693
1.52928
1.51986
1.51745
1.53099
1.56671
1.61661
1.65458
1.67608
1.67618
1.36859
1.51326
1.55985
1.56729
1.57226
1.57372
1.57172
1.57361
1.61386
1.77582
1.98335
2.05493
2.04502
2.02068
1.98563
1.94428
1.90004
1.85621
1.81523
1.77763
1.74351
1.71198
1.68106
1.64934
1.61714
1.58471
1.55387
1.526
1.49893
1.47131
1.44622
1.42608
1.40675
1.387
1.36864
1.35201
1.33267
1.31024
1.29149
1.27463
1.26089
1.25097
1.25363
1.30094
1.41631
1.54637
1.61567
1.61545
1.60184
1.58989
1.57646
1.56919
1.57042
1.58262
1.62059
1.693
1.7853
1.82596
1.82783
1.82627
1.821
1.81111
1.79701
1.77991
1.76571
1.7539
1.74097
1.72612
1.71139
1.69836
1.68686
1.67702
1.66733
1.65604
1.64444
1.63483
1.62626
1.61768
1.60906
1.60029
1.5907
1.57973
1.56733
1.55555
1.5472
1.54009
1.53301
1.52564
1.51626
1.50654
1.50508
1.51158
1.53667
1.57539
1.61978
1.64531
1.12087
1.3236
1.49078
1.54344
1.55985
1.56503
1.58585
1.68446
1.88475
2.06048
2.12938
2.1199
2.07391
2.02511
1.99021
1.95441
1.91137
1.86506
1.82119
1.78139
1.74499
1.71214
1.68244
1.65357
1.6231
1.59032
1.55772
1.52874
1.50378
1.4806
1.45524
1.42823
1.40903
1.39711
1.38155
1.3605
1.33725
1.3142
1.29558
1.27868
1.25744
1.24457
1.23639
1.23509
1.25637
1.33929
1.47589
1.55721
1.57624
1.57299
1.56609
1.56944
1.60937
1.68774
1.76378
1.82942
1.86909
1.86713
1.84653
1.82029
1.80402
1.79247
1.78379
1.77422
1.76201
1.74955
1.73699
1.72372
1.70989
1.69571
1.68189
1.66899
1.65861
1.64982
1.64109
1.63254
1.62451
1.61639
1.6073
1.59724
1.58658
1.57535
1.56362
1.55318
1.54538
1.53838
1.53163
1.52538
1.51762
1.50662
1.49714
1.49031
1.49141
1.50435
1.5341
1.59225
1.00844
1.07226
1.28538
1.44046
1.55273
1.65366
1.77368
1.95821
2.08314
2.11694
2.11815
2.108
2.08095
2.04286
2.00434
1.96202
1.91563
1.86988
1.82889
1.79105
1.75356
1.71739
1.68377
1.65187
1.62209
1.5924
1.56318
1.53554
1.51145
1.48862
1.46279
1.43812
1.41763
1.39666
1.37236
1.34963
1.3327
1.31864
1.30237
1.28246
1.2626
1.24959
1.23733
1.2256
1.21189
1.2173
1.26917
1.38324
1.48455
1.55455
1.5906
1.64741
1.75695
1.82792
1.85567
1.86919
1.86627
1.86003
1.84187
1.82003
1.80117
1.78531
1.77537
1.76768
1.75902
1.74858
1.73646
1.72272
1.7093
1.69551
1.68042
1.66626
1.65444
1.64571
1.64067
1.63691
1.63182
1.62345
1.61274
1.60111
1.58966
1.57871
1.56772
1.5578
1.54914
1.54105
1.5336
1.52639
1.51823
1.50892
1.49536
1.48314
1.47538
1.47556
1.48139
1.52772
1.00011
1.00325
1.06133
1.23765
1.58196
1.82567
1.97256
2.11243
2.17515
2.15002
2.12351
2.10089
2.08522
2.05865
2.01314
1.96193
1.9144
1.87174
1.83017
1.79296
1.76665
1.73975
1.70565
1.66948
1.63385
1.59918
1.56807
1.53877
1.50749
1.48477
1.47501
1.46066
1.43605
1.4039
1.37476
1.3538
1.33969
1.32327
1.29851
1.28423
1.27752
1.26625
1.24898
1.22723
1.20907
1.19855
1.20089
1.22773
1.31822
1.51417
1.66556
1.77416
1.86957
1.91123
1.91007
1.89982
1.87222
1.84582
1.83259
1.81868
1.80292
1.78657
1.7737
1.76527
1.76037
1.75405
1.74324
1.72821
1.7098
1.69115
1.67593
1.66421
1.65553
1.64967
1.64446
1.63779
1.62884
1.61812
1.60601
1.59388
1.58269
1.57259
1.56237
1.55181
1.54647
1.54369
1.53953
1.53333
1.52506
1.51109
1.49161
1.4766
1.46907
1.46663
1.46768
1.48736
1.00014
1.00596
1.04908
1.26089
1.51556
1.80181
2.02453
2.11512
2.16612
2.15307
2.11938
2.0933
2.07483
2.04414
1.99992
1.95529
1.91736
1.88079
1.84197
1.80377
1.76422
1.72592
1.69045
1.65419
1.62411
1.6048
1.58216
1.55294
1.52116
1.49276
1.4677
1.44567
1.42076
1.39087
1.3766
1.36878
1.35577
1.33663
1.3099
1.28457
1.26572
1.25274
1.23688
1.21962
1.20827
1.19984
1.20329
1.23439
1.35003
1.49764
1.67525
1.81645
1.86625
1.90218
1.91167
1.8929
1.86046
1.83789
1.82826
1.81941
1.80627
1.79072
1.77854
1.76865
1.7596
1.74881
1.7351
1.71984
1.70504
1.6905
1.67778
1.66711
1.65708
1.64873
1.64211
1.63566
1.62821
1.61828
1.60583
1.59321
1.58204
1.5721
1.56213
1.55329
1.54837
1.54328
1.5363
1.52839
1.51883
1.50557
1.48884
1.47592
1.46932
1.46686
1.46798
1.49003
1.00847
1.09793
1.26873
1.466
1.50182
1.62813
1.83037
1.96979
2.08006
2.12019
2.11881
2.10427
2.07466
2.03021
1.98976
1.95303
1.91426
1.87347
1.83469
1.79787
1.76001
1.72291
1.68902
1.65769
1.62572
1.59174
1.56066
1.53328
1.50754
1.48255
1.4583
1.43799
1.41712
1.39535
1.37444
1.35412
1.33513
1.31818
1.30329
1.28371
1.26463
1.24989
1.23504
1.22212
1.21359
1.2176
1.26625
1.37392
1.50315
1.5336
1.59456
1.69707
1.7553
1.82183
1.85195
1.86264
1.8607
1.8525
1.83756
1.8182
1.80346
1.79671
1.79005
1.78002
1.76565
1.74932
1.73191
1.71615
1.70476
1.69641
1.68713
1.67615
1.66445
1.65383
1.6452
1.63781
1.63106
1.62248
1.61135
1.59897
1.58704
1.57664
1.56785
1.56044
1.55334
1.54529
1.53743
1.52862
1.51712
1.50218
1.48868
1.4781
1.47415
1.47562
1.48439
1.53665
1.13188
1.34547
1.47569
1.54717
1.5594
1.56312
1.5943
1.6864
1.87082
2.05877
2.12987
2.11574
2.0658
2.0145
1.98156
1.95272
1.9175
1.87671
1.83366
1.79041
1.74951
1.71242
1.67892
1.64757
1.61694
1.58496
1.55338
1.52679
1.50595
1.48579
1.46288
1.43713
1.40964
1.3857
1.36631
1.34984
1.3325
1.31263
1.29976
1.29077
1.27763
1.2557
1.23866
1.22905
1.24503
1.33318
1.45226
1.54769
1.5834
1.57807
1.57127
1.57883
1.60686
1.67252
1.75607
1.82866
1.86335
1.86286
1.84932
1.82347
1.8007
1.7927
1.78719
1.77733
1.76322
1.74716
1.73265
1.71992
1.70774
1.69521
1.68321
1.67151
1.6607
1.65187
1.6436
1.63468
1.62574
1.61707
1.60719
1.59536
1.58208
1.56981
1.56146
1.55528
1.54953
1.54357
1.53708
1.52955
1.51936
1.50184
1.48732
1.48461
1.48632
1.50247
1.53917
1.60742
1.41146
1.52098
1.5377
1.55357
1.56792
1.57279
1.57375
1.57765
1.61355
1.77851
1.99529
2.05057
2.03762
2.01577
1.98411
1.94977
1.91056
1.86851
1.82459
1.78057
1.73943
1.70313
1.67113
1.64079
1.61068
1.58164
1.55427
1.52764
1.50087
1.47486
1.44965
1.42742
1.40951
1.38963
1.36448
1.34029
1.32472
1.314
1.30213
1.2847
1.27165
1.25462
1.25502
1.29794
1.42131
1.54219
1.595
1.61335
1.60963
1.59778
1.58029
1.57146
1.5682
1.57651
1.61193
1.69251
1.77825
1.8344
1.83531
1.82896
1.81949
1.80802
1.79177
1.77473
1.76139
1.74951
1.73838
1.72714
1.71463
1.70169
1.69016
1.67878
1.66636
1.65451
1.64382
1.63451
1.62663
1.61912
1.61081
1.60103
1.58839
1.57232
1.56088
1.55487
1.55032
1.54554
1.5401
1.53323
1.52203
1.50504
1.49469
1.50003
1.52618
1.56943
1.62151
1.65892
1.54588
1.56903
1.56763
1.56846
1.5706
1.57461
1.57407
1.57058
1.55828
1.56296
1.66118
1.84013
1.97888
2.00607
1.9857
1.93907
1.89234
1.85072
1.81121
1.77182
1.7336
1.69798
1.66546
1.63508
1.60589
1.57719
1.54909
1.52239
1.49824
1.47561
1.45193
1.4274
1.40271
1.37985
1.35928
1.34303
1.32866
1.31383
1.2986
1.28815
1.27806
1.29261
1.37679
1.50912
1.62741
1.64741
1.64207
1.6318
1.62078
1.60986
1.59746
1.58614
1.57429
1.56392
1.55965
1.57295
1.63059
1.72514
1.8024
1.83644
1.83545
1.82136
1.7949
1.77205
1.764
1.75724
1.74832
1.73765
1.725
1.71171
1.69782
1.68301
1.66887
1.65656
1.64632
1.63835
1.63178
1.62525
1.61786
1.60821
1.5933
1.57487
1.56243
1.55584
1.55039
1.54499
1.54054
1.53565
1.5278
1.51859
1.52379
1.55223
1.59766
1.63904
1.67194
1.68257
1.5605
1.57022
1.57826
1.57932
1.57841
1.5775
1.57432
1.56602
1.54493
1.51976
1.49174
1.52767
1.68241
1.8534
1.92121
1.911
1.87675
1.8388
1.80092
1.76203
1.72375
1.68796
1.65563
1.62612
1.59851
1.57161
1.54541
1.51921
1.49407
1.46942
1.44434
1.4197
1.40016
1.38259
1.36395
1.34468
1.32803
1.31605
1.30286
1.30542
1.35123
1.47286
1.60275
1.67317
1.69312
1.68762
1.67063
1.65134
1.6376
1.62647
1.61581
1.60333
1.58792
1.56954
1.5562
1.55105
1.55552
1.58813
1.66975
1.76232
1.80599
1.80294
1.79187
1.78354
1.7747
1.76598
1.75593
1.74567
1.73447
1.72231
1.70604
1.68605
1.67
1.65906
1.65059
1.64396
1.63836
1.63261
1.62593
1.61636
1.59959
1.57857
1.56473
1.55808
1.55338
1.54903
1.54689
1.54421
1.54695
1.56064
1.59472
1.6344
1.65833
1.67945
1.69418
1.68845
1.58198
1.58116
1.5822
1.58196
1.57967
1.57567
1.56692
1.5488
1.52096
1.486
1.45246
1.40993
1.42027
1.51865
1.69754
1.83203
1.8453
1.82483
1.78645
1.74616
1.70913
1.67634
1.6464
1.6179
1.59024
1.56284
1.53673
1.51185
1.48875
1.46586
1.44212
1.41633
1.39762
1.3812
1.36499
1.34638
1.33221
1.32652
1.34741
1.44247
1.58389
1.68861
1.72442
1.72233
1.71115
1.69818
1.68305
1.66813
1.65564
1.64356
1.63169
1.61762
1.6002
1.58019
1.56334
1.55265
1.54904
1.54967
1.56336
1.61652
1.69313
1.76305
1.78731
1.7897
1.78073
1.7691
1.7612
1.75289
1.74348
1.7314
1.71242
1.68851
1.67075
1.66142
1.65529
1.64991
1.64456
1.63892
1.63235
1.62242
1.6057
1.58398
1.5679
1.56114
1.55737
1.55726
1.5595
1.57455
1.60763
1.65111
1.68459
1.69475
1.6988
1.70201
1.6974
1.68753
1.57867
1.58111
1.58191
1.58099
1.57887
1.56919
1.54998
1.52036
1.48128
1.44068
1.4136
1.3738
1.33151
1.31657
1.3704
1.54312
1.71306
1.76684
1.7562
1.72504
1.69075
1.65944
1.63018
1.60282
1.57706
1.55261
1.52928
1.50781
1.48613
1.46358
1.43918
1.41338
1.39739
1.38379
1.3708
1.35667
1.36045
1.42369
1.56447
1.70061
1.7609
1.77058
1.76366
1.74117
1.72132
1.70717
1.69367
1.68131
1.66952
1.65698
1.64394
1.62811
1.60746
1.58681
1.57247
1.56128
1.55321
1.54597
1.54281
1.54445
1.56482
1.62734
1.70489
1.74951
1.75837
1.7644
1.76646
1.76027
1.75085
1.73781
1.71678
1.69067
1.67058
1.66291
1.65867
1.65355
1.64762
1.64148
1.6346
1.62503
1.61029
1.58903
1.57205
1.56651
1.5662
1.5718
1.60032
1.65107
1.70191
1.72856
1.73797
1.7348
1.72349
1.70764
1.69727
1.68539
1.58132
1.58286
1.58329
1.58156
1.57218
1.5513
1.52046
1.47407
1.43089
1.39997
1.35964
1.30885
1.27364
1.25784
1.23243
1.259
1.40413
1.59169
1.69476
1.69381
1.67485
1.64426
1.61365
1.58728
1.56381
1.54261
1.52064
1.50068
1.48144
1.46343
1.44226
1.41992
1.40492
1.39683
1.38788
1.41074
1.52034
1.69803
1.80329
1.8205
1.81243
1.79115
1.76837
1.74501
1.72812
1.71515
1.70306
1.69209
1.68123
1.66902
1.65395
1.63238
1.60772
1.59016
1.57889
1.56925
1.56054
1.55207
1.54197
1.53528
1.52444
1.52919
1.56429
1.63673
1.7038
1.7423
1.76208
1.76219
1.7563
1.74218
1.72288
1.69717
1.67174
1.66206
1.65739
1.65317
1.6477
1.64191
1.63487
1.62535
1.61274
1.59373
1.57818
1.57652
1.5864
1.62339
1.67988
1.73464
1.75779
1.75811
1.75625
1.74762
1.73233
1.71204
1.69791
1.68561
1.58394
1.58311
1.57973
1.57131
1.54948
1.51416
1.46912
1.42155
1.37883
1.33664
1.2802
1.2508
1.23743
1.20849
1.16265
1.13704
1.15572
1.27338
1.47594
1.61183
1.64311
1.62978
1.60332
1.57653
1.5539
1.53716
1.52088
1.50282
1.48565
1.46985
1.45273
1.43568
1.42147
1.42668
1.49025
1.64513
1.79331
1.87311
1.87259
1.85319
1.82171
1.79304
1.77081
1.75136
1.7344
1.72105
1.71077
1.70176
1.69114
1.67741
1.65783
1.62979
1.60667
1.59401
1.5833
1.57321
1.56597
1.56079
1.55295
1.53848
1.52051
1.50242
1.49917
1.51704
1.57987
1.65204
1.71349
1.73597
1.73968
1.73672
1.72656
1.70522
1.67767
1.66095
1.65427
1.64969
1.64444
1.63833
1.63139
1.62391
1.61568
1.60071
1.59594
1.61082
1.65217
1.70598
1.74669
1.77293
1.78003
1.7756
1.76504
1.75036
1.73465
1.71435
1.69899
1.68656
1.57694
1.57435
1.5677
1.54665
1.50644
1.46165
1.41318
1.35472
1.30337
1.26691
1.23318
1.20551
1.17828
1.12547
1.09767
1.09735
1.09442
1.10523
1.19087
1.38801
1.54517
1.6047
1.59902
1.58119
1.5577
1.53842
1.52502
1.50998
1.49859
1.48675
1.47336
1.46138
1.48392
1.60381
1.77867
1.88042
1.90171
1.89582
1.87547
1.85076
1.8259
1.802
1.77914
1.75881
1.74326
1.72953
1.71652
1.70695
1.69883
1.68555
1.66132
1.62783
1.60511
1.59606
1.58849
1.58056
1.57126
1.56229
1.55061
1.53566
1.51676
1.4977
1.4887
1.48062
1.48768
1.5264
1.60241
1.67326
1.71104
1.72363
1.72182
1.71137
1.68728
1.66465
1.6492
1.64155
1.63681
1.63268
1.62719
1.62516
1.62528
1.6329
1.65754
1.70442
1.74108
1.76273
1.77173
1.77884
1.77616
1.7719
1.76376
1.75033
1.73413
1.71571
1.70157
1.68822
1.56603
1.56094
1.54183
1.50068
1.45212
1.40327
1.33242
1.27009
1.24517
1.21188
1.16708
1.13842
1.10724
1.06809
1.06217
1.05943
1.05298
1.04613
1.05372
1.12866
1.3234
1.50732
1.58806
1.58455
1.57082
1.55125
1.54061
1.52749
1.51911
1.50881
1.51319
1.57263
1.73693
1.90016
1.95226
1.93929
1.9238
1.89276
1.86499
1.84383
1.82798
1.80897
1.78666
1.76503
1.74917
1.73924
1.7294
1.71554
1.69639
1.67455
1.65311
1.63178
1.61274
1.59837
1.58898
1.58376
1.57912
1.5697
1.55514
1.53494
1.51588
1.50038
1.48903
1.47817
1.46842
1.4673
1.4914
1.55398
1.62658
1.67876
1.69669
1.69645
1.68841
1.6684
1.64743
1.63533
1.63007
1.6297
1.63054
1.64096
1.67245
1.71168
1.76071
1.79171
1.79237
1.78917
1.78174
1.77127
1.76316
1.75712
1.75026
1.73977
1.72718
1.71594
1.70819
1.69405
1.55475
1.53765
1.49623
1.43886
1.38753
1.31681
1.24161
1.20985
1.18088
1.12368
1.09893
1.09038
1.06758
1.0472
1.05002
1.04979
1.04408
1.04193
1.0419
1.0461
1.10307
1.27899
1.50499
1.58047
1.57944
1.57391
1.56502
1.5511
1.53958
1.55725
1.6604
1.8533
1.98583
1.98636
1.97479
1.94403
1.91288
1.88682
1.86207
1.84094
1.8279
1.81503
1.79944
1.78233
1.76441
1.74292
1.72196
1.70372
1.68533
1.66705
1.64899
1.63488
1.62319
1.6123
1.60109
1.58802
1.57324
1.55859
1.54318
1.52754
1.51348
1.5029
1.49228
1.48034
1.46688
1.45541
1.45549
1.46855
1.51225
1.58048
1.63833
1.66825
1.67205
1.66644
1.64856
1.63181
1.63077
1.63386
1.65308
1.70138
1.75442
1.79563
1.81392
1.81279
1.80547
1.794
1.78072
1.76866
1.75832
1.74886
1.7408
1.73122
1.72211
1.71666
1.71125
1.69781
1.53396
1.49337
1.42557
1.36134
1.29258
1.21072
1.16405
1.13201
1.08957
1.05246
1.05215
1.04757
1.04037
1.04037
1.04345
1.05368
1.05357
1.05306
1.05636
1.06315
1.06874
1.10874
1.27941
1.49867
1.58281
1.58108
1.57951
1.58417
1.62284
1.75908
1.93443
2.0292
2.03373
2.01331
1.96878
1.93234
1.90667
1.88624
1.86507
1.84599
1.83068
1.81441
1.79591
1.77575
1.75602
1.73621
1.71669
1.6984
1.68082
1.66496
1.65258
1.64212
1.63018
1.61467
1.59694
1.58154
1.56789
1.55399
1.53983
1.5271
1.51754
1.50859
1.49724
1.48383
1.4713
1.45922
1.44883
1.43818
1.44014
1.4611
1.51874
1.58192
1.63855
1.64847
1.6415
1.6404
1.65273
1.67991
1.72411
1.78157
1.81216
1.8316
1.83254
1.82746
1.81408
1.796
1.78023
1.766
1.7508
1.73981
1.73323
1.72655
1.72047
1.71548
1.70926
1.69704
1.49314
1.40622
1.32589
1.25528
1.162
1.11358
1.10913
1.08737
1.06098
1.0577
1.05767
1.05522
1.0575
1.06387
1.06912
1.07205
1.07551
1.07828
1.08338
1.09127
1.09459
1.09693
1.12149
1.28405
1.49689
1.55417
1.62593
1.72399
1.86403
1.97229
2.04584
2.03944
2.01367
1.98551
1.95764
1.93166
1.91217
1.89479
1.87785
1.86123
1.84307
1.82344
1.80231
1.77909
1.75432
1.73264
1.7162
1.70193
1.68891
1.67818
1.66821
1.65692
1.64285
1.62431
1.60214
1.58065
1.566
1.55552
1.54589
1.53756
1.52965
1.52054
1.50974
1.49758
1.48532
1.47078
1.45192
1.43302
1.41805
1.41839
1.43158
1.47185
1.54141
1.60799
1.64718
1.69292
1.74247
1.7751
1.79925
1.81659
1.82785
1.83156
1.82821
1.81888
1.80677
1.79479
1.7823
1.76462
1.74549
1.73423
1.72865
1.72641
1.72431
1.71964
1.71378
1.70275
1.3938
1.23053
1.11347
1.0126
0.961349
0.972909
1.01849
1.03345
1.03306
1.04518
1.06643
1.08203
1.09688
1.11231
1.11245
1.11101
1.10647
1.10585
1.10898
1.11529
1.11786
1.11574
1.11143
1.13377
1.27253
1.51465
1.74758
1.97357
2.14175
2.1871
2.14056
2.05779
1.99802
1.96796
1.94946
1.92825
1.90567
1.88703
1.87105
1.8552
1.8372
1.81703
1.79549
1.77237
1.74753
1.72442
1.70539
1.69029