/*--------------------------------*- C++ -*----------------------------------*\
  =========                 |
  \\      /  F ield         | OpenFOAM: The Open Source CFD Toolbox
   \\    /   O peration     | Website:  https://openfoam.org
    \\  /    A nd           | Version:  7
     \\/     M anipulation  |
\*---------------------------------------------------------------------------*/
FoamFile
{
    version     2.0;
    format      ascii;
    class       volVectorField;
    location    "2.7";
    object      U;
}
// * * * * * * * * * * * * * * * * * * * * * * * * * * * * * * * * * * * * * //

dimensions      [0 1 -1 0 0 0 0];

internalField   nonuniform List<vector> 
4608
(
(3 1.44561e-17 0)
(3 -4.80164e-17 0)
(3 -1.67796e-16 0)
(3 -4.63251e-16 0)
(3 -2.15808e-16 0)
(3 4.65553e-17 0)
(3 6.22844e-17 0)
(3 3.97492e-16 0)
(3 1.11618e-15 0)
(3 1.50774e-15 0)
(3 1.93803e-15 0)
(3 2.11013e-15 0)
(3 1.915e-15 0)
(3 8.71125e-16 0)
(3 -7.95989e-16 0)
(3 -1.22715e-15 0)
(3 -3.4344e-16 0)
(3 2.523e-17 0)
(3 7.94748e-16 0)
(3 -1.63201e-16 0)
(3 -9.28736e-16 0)
(3 -1.46624e-15 0)
(3 -1.18926e-15 0)
(3 -6.02904e-16 0)
(3 -6.40361e-18 0)
(3 2.35742e-16 0)
(3 5.80572e-16 0)
(3 -8.05969e-17 0)
(3 5.46547e-16 0)
(3 6.5636e-16 0)
(3 4.44191e-16 0)
(3 5.27756e-16 0)
(3 8.29918e-16 0)
(3 1.44044e-15 0)
(3 1.83124e-15 0)
(3 1.95016e-15 0)
(3 1.65773e-15 0)
(3 7.16062e-16 0)
(3 -6.12428e-16 0)
(3 -1.61862e-15 0)
(3 -1.01725e-15 0)
(3 -6.14658e-16 0)
(3 -2.03642e-16 0)
(3 -3.00045e-16 0)
(3 -4.55825e-16 0)
(3 -1.0568e-15 0)
(3 -8.74125e-16 0)
(3 -1.64369e-16 0)
(3 -3.79651e-17 0)
(3 7.57575e-16 0)
(3 1.21266e-15 0)
(3 1.31172e-15 0)
(3 1.19706e-15 0)
(3 3.87802e-16 0)
(3 -3.64289e-16 0)
(3 -3.79258e-16 0)
(3 -1.3323e-16 0)
(3 9.06274e-16 0)
(3 1.03028e-15 0)
(3 9.32629e-16 0)
(3 8.12327e-16 0)
(3 7.35736e-16 0)
(3 -3.39359e-16 0)
(3 -1.41859e-15 0)
(3 -2.73965e-16 0)
(3 3.05646e-16 0)
(3 7.90745e-16 0)
(3 3.58162e-16 0)
(3 3.63665e-17 0)
(3 3.06505e-16 0)
(3 5.85167e-16 0)
(3 5.25647e-16 0)
(3 6.54792e-17 0)
(3 2.16882e-16 0)
(3 8.54684e-17 0)
(3 6.77547e-16 0)
(3 1.97961e-17 0)
(3 -1.27232e-15 0)
(3 -1.80876e-15 0)
(3 -1.49967e-15 0)
(3 -8.69576e-17 0)
(3 -1.31856e-16 0)
(3 2.9585e-16 0)
(3 6.24766e-16 0)
(3 3.19964e-16 0)
(3 -1.33725e-16 0)
(3 -2.81015e-16 0)
(3 -3.4022e-16 0)
(3 2.51804e-16 0)
(3 1.29646e-15 0)
(3 1.78067e-15 0)
(3 4.63373e-16 0)
(3 2.19928e-16 0)
(3 1.35924e-17 0)
(3 2.78146e-17 0)
(3 -7.5767e-16 0)
(3 8.4214e-17 0)
(3 -3.88451e-16 0)
(3 -6.77891e-16 0)
(3 -6.98124e-16 0)
(3 -8.23493e-16 0)
(3 -9.5678e-16 0)
(3 -9.17498e-16 0)
(3 -1.0642e-15 0)
(3 -7.60568e-16 0)
(3 -5.34656e-16 0)
(3 1.42695e-16 0)
(3 -6.26883e-17 0)
(3 -4.6215e-16 0)
(3 -6.36757e-16 0)
(3 -3.7701e-16 0)
(3 6.87257e-16 0)
(3 1.35398e-15 0)
(3 1.7674e-15 0)
(3 1.59865e-15 0)
(3 1.02192e-15 0)
(3 1.057e-15 0)
(3 8.16407e-16 0)
(3 -5.01912e-16 0)
(3 -1.55967e-15 0)
(3 -1.98424e-17 0)
(3 -2.2222e-16 0)
(3 -3.71672e-16 0)
(3 -7.38773e-16 0)
(3 -5.51158e-16 0)
(3 -1.81401e-16 0)
(3 3.6645e-16 0)
(3 2.85677e-17 0)
(3 -3.53972e-17 0)
(3 1.61008e-16 0)
(3 2.44655e-16 0)
(3 -6.85906e-16 0)
(3 -9.60561e-16 0)
(3 -1.18458e-15 0)
(3 -7.93094e-16 0)
(3 -2.10927e-16 0)
(3 8.39406e-16 0)
(3 2.44373e-15 0)
(3 3.56734e-15 0)
(3 3.13122e-15 0)
(3 1.84934e-15 0)
(3 7.0632e-16 0)
(3 -6.84136e-17 0)
(3 1.46886e-16 0)
(3 -9.03478e-17 0)
(3 8.85025e-17 0)
(3 5.03687e-16 0)
(3 3.84869e-16 0)
(3 -2.81127e-16 0)
(3 -3.71881e-16 0)
(3 1.00314e-16 0)
(3 8.32154e-16 0)
(3 1.03936e-15 0)
(3 1.0052e-15 0)
(3 6.03872e-16 0)
(3 3.46944e-16 0)
(3 -4.19518e-16 0)
(3 -7.55076e-16 0)
(3 -3.64846e-16 0)
(3 -1.06617e-16 0)
(3 -4.04275e-17 0)
(3 1.57172e-15 0)
(3 2.56359e-15 0)
(3 3.04222e-15 0)
(3 2.76262e-15 0)
(3 2.35209e-15 0)
(3 2.25997e-15 0)
(3 3.0128e-15 0)
(3 -5.18398e-17 0)
(3 9.32677e-17 0)
(3 3.81658e-16 0)
(3 8.79908e-16 0)
(3 8.08393e-16 0)
(3 6.57182e-16 0)
(3 8.23696e-16 0)
(3 1.14589e-15 0)
(3 9.48061e-16 0)
(3 6.88858e-16 0)
(3 6.3491e-16 0)
(3 1.39512e-17 0)
(3 5.83971e-17 0)
(3 9.891e-16 0)
(3 1.14012e-15 0)
(3 1.32667e-15 0)
(3 1.09382e-15 0)
(3 7.68829e-16 0)
(3 4.30466e-16 0)
(3 6.9096e-16 0)
(3 1.48614e-15 0)
(3 2.53205e-15 0)
(3 2.5163e-15 0)
(3 2.05915e-15 0)
(3 -1.79305e-17 0)
(3 -8.48509e-17 0)
(3 1.2858e-16 0)
(3 5.26897e-16 0)
(3 7.0547e-16 0)
(3 9.0244e-16 0)
(3 5.12039e-16 0)
(3 2.78049e-16 0)
(3 -1.97416e-16 0)
(3 -6.8256e-16 0)
(3 -4.60032e-16 0)
(3 -1.90043e-16 0)
(3 1.2104e-16 0)
(3 1.61355e-15 0)
(3 2.05457e-15 0)
(3 1.90324e-15 0)
(3 1.36967e-15 0)
(3 5.08211e-16 0)
(3 1.90218e-16 0)
(3 2.4107e-18 0)
(3 2.20922e-16 0)
(3 4.67563e-16 0)
(3 1.02909e-15 0)
(3 7.53694e-16 0)
(3 1.15468e-16 0)
(3 2.21651e-16 0)
(3 2.1947e-18 0)
(3 4.49999e-17 0)
(3 -5.57784e-16 0)
(3 -6.73291e-16 0)
(3 -9.51076e-16 0)
(3 -1.10702e-15 0)
(3 -1.01159e-15 0)
(3 -1.23685e-15 0)
(3 -1.55013e-15 0)
(3 -3.16849e-16 0)
(3 7.32761e-17 0)
(3 4.16057e-16 0)
(3 1.08646e-15 0)
(3 1.17498e-15 0)
(3 8.69707e-16 0)
(3 2.75383e-16 0)
(3 5.87293e-17 0)
(3 6.1135e-17 0)
(3 -8.69014e-16 0)
(3 -7.49445e-16 0)
(3 -6.00722e-16 0)
(3 6.69855e-16 0)
(3 -8.60593e-17 0)
(3 -1.64922e-16 0)
(3 -7.10352e-16 0)
(3 -9.52945e-16 0)
(3 -1.06408e-15 0)
(3 -1.20448e-15 0)
(3 -1.09759e-15 0)
(3 -7.21408e-16 0)
(3 -2.67838e-16 0)
(3 -5.55053e-16 0)
(3 -1.11868e-15 0)
(3 -9.60766e-16 0)
(3 -4.13044e-16 0)
(3 -3.53906e-16 0)
(3 1.87956e-16 0)
(3 6.2208e-16 0)
(3 3.12787e-16 0)
(3 -8.90327e-17 0)
(3 -2.29786e-16 0)
(3 -4.81533e-16 0)
(3 -4.26499e-16 0)
(3 -4.36192e-16 0)
(3 -1.09349e-15 0)
(3 -1.26421e-15 0)
(3 -9.60945e-17 0)
(3 -2.48322e-16 0)
(3 -2.26724e-16 0)
(3 4.65804e-17 0)
(3 2.69669e-16 0)
(3 -3.16666e-16 0)
(3 -3.92554e-16 0)
(3 -7.20197e-16 0)
(3 -8.96727e-16 0)
(3 -5.37205e-16 0)
(3 -3.69438e-16 0)
(3 -1.45231e-15 0)
(3 -1.4755e-15 0)
(3 -4.21316e-16 0)
(3 1.805e-17 0)
(3 1.71977e-16 0)
(3 -1.65915e-16 0)
(3 -3.4463e-16 0)
(3 -3.604e-16 0)
(3 -4.51628e-16 0)
(3 -4.77999e-16 0)
(3 -8.99302e-16 0)
(3 -1.11244e-15 0)
(3 -9.5646e-16 0)
(3 1.58054e-17 0)
(3 -1.84803e-17 0)
(3 -1.79811e-16 0)
(3 2.11191e-17 0)
(3 4.68152e-16 0)
(3 1.39543e-16 0)
(3 8.03157e-17 0)
(3 -4.62249e-16 0)
(3 -6.20941e-16 0)
(3 -2.51091e-16 0)
(3 -4.99977e-16 0)
(3 -3.10504e-16 0)
(3 -4.91911e-16 0)
(3 -1.36632e-16 0)
(3 2.87203e-16 0)
(3 3.45549e-17 0)
(3 -5.23489e-16 0)
(3 -5.44737e-16 0)
(3 -4.08138e-16 0)
(3 -4.56585e-16 0)
(3 -3.9222e-16 0)
(3 -5.80718e-16 0)
(3 -3.37397e-16 0)
(3 1.11878e-15 0)
(3 2.05549e-17 0)
(3 -1.00494e-16 0)
(3 -3.6726e-16 0)
(3 -4.1078e-16 0)
(3 -5.6331e-16 0)
(3 4.03845e-16 0)
(3 6.68831e-16 0)
(3 5.9866e-16 0)
(3 3.75437e-16 0)
(3 -4.80556e-17 0)
(3 -1.95629e-16 0)
(3 4.51041e-16 0)
(3 8.1768e-16 0)
(3 4.14023e-16 0)
(3 -8.88132e-17 0)
(3 -8.09467e-16 0)
(3 -1.23493e-15 0)
(3 -8.42361e-16 0)
(3 -2.97993e-16 0)
(3 6.28818e-16 0)
(3 6.8775e-16 0)
(3 1.03306e-15 0)
(3 2.05024e-15 0)
(3 2.18265e-15 0)
(3 -1.31298e-17 0)
(3 1.08983e-17 0)
(3 -4.92083e-18 0)
(3 -3.51081e-16 0)
(3 -8.12151e-16 0)
(3 -1.03841e-16 0)
(3 4.28436e-16 0)
(3 6.70723e-16 0)
(3 4.74336e-17 0)
(3 -2.40317e-16 0)
(3 -1.65947e-16 0)
(3 -1.5367e-16 0)
(3 1.59025e-16 0)
(3 -5.56944e-16 0)
(3 -8.24449e-16 0)
(3 -1.25339e-15 0)
(3 -1.11868e-15 0)
(3 -2.61291e-16 0)
(3 1.74563e-16 0)
(3 6.21903e-16 0)
(3 -1.36965e-16 0)
(3 5.64585e-16 0)
(3 1.71585e-15 0)
(3 1.41035e-15 0)
(3 -2.57782e-17 0)
(3 -1.61017e-16 0)
(3 -1.46715e-16 0)
(3 -3.64383e-16 0)
(3 -4.53419e-16 0)
(3 -8.09992e-16 0)
(3 -8.92582e-16 0)
(3 -2.44624e-16 0)
(3 9.30088e-17 0)
(3 5.5514e-16 0)
(3 1.06605e-15 0)
(3 1.86893e-16 0)
(3 -3.39979e-16 0)
(3 -3.64347e-16 0)
(3 1.35214e-17 0)
(3 5.67407e-16 0)
(3 6.28388e-16 0)
(3 1.40351e-16 0)
(3 5.64709e-16 0)
(3 3.59268e-16 0)
(3 3.65468e-16 0)
(3 4.65702e-16 0)
(3 2.35404e-16 0)
(3 -1.91013e-16 0)
(3 -1.79689e-18 0)
(3 -1.33505e-16 0)
(3 9.03126e-17 0)
(3 1.38289e-16 0)
(3 2.61134e-16 0)
(3 2.24859e-16 0)
(3 -4.20288e-16 0)
(3 -2.69178e-16 0)
(3 5.4726e-17 0)
(3 6.1149e-16 0)
(3 1.66636e-15 0)
(3 1.42279e-15 0)
(3 7.91378e-16 0)
(3 1.34769e-15 0)
(3 1.31291e-15 0)
(3 1.34011e-15 0)
(3 1.14507e-15 0)
(3 2.66336e-16 0)
(3 -1.81008e-16 0)
(3 -1.94561e-16 0)
(3 -5.04439e-17 0)
(3 -2.29215e-16 0)
(3 -8.02559e-16 0)
(3 -8.53021e-16 0)
(3 -2.3443e-17 0)
(3 8.92473e-17 0)
(3 5.88923e-16 0)
(3 1.00012e-15 0)
(3 1.4193e-15 0)
(3 1.45844e-15 0)
(3 1.5349e-15 0)
(3 1.04297e-15 0)
(3 8.40633e-16 0)
(3 6.4471e-16 0)
(3 7.71697e-16 0)
(3 1.24137e-15 0)
(3 1.7311e-15 0)
(3 1.27676e-15 0)
(3 8.82224e-16 0)
(3 3.16636e-16 0)
(3 1.13341e-16 0)
(3 -5.99137e-16 0)
(3 -1.39389e-15 0)
(3 -1.14519e-15 0)
(3 -1.08049e-15 0)
(3 -6.15955e-16 0)
(3 -3.6154e-16 0)
(3 -1.50444e-16 0)
(3 2.67768e-17 0)
(3 5.04707e-16 0)
(3 4.87942e-16 0)
(3 7.19389e-16 0)
(3 1.10357e-15 0)
(3 1.05896e-15 0)
(3 7.75901e-16 0)
(3 6.67036e-16 0)
(3 5.48793e-16 0)
(3 4.41436e-16 0)
(3 2.09033e-18 0)
(3 -1.0782e-16 0)
(3 -4.66833e-16 0)
(3 -1.0184e-15 0)
(3 -1.01056e-15 0)
(3 -1.98816e-16 0)
(3 8.94999e-17 0)
(3 4.55327e-16 0)
(3 -3.91017e-16 0)
(3 -1.13553e-15 0)
(3 -5.97843e-16 0)
(3 6.8956e-17 0)
(3 -1.95287e-16 0)
(3 2.29476e-16 0)
(3 3.52949e-17 0)
(3 -1.79322e-16 0)
(3 -3.07316e-16 0)
(3 -2.63654e-16 0)
(3 -2.99411e-16 0)
(3 -1.13226e-16 0)
(3 -3.25555e-16 0)
(3 -6.1482e-16 0)
(3 -7.0632e-16 0)
(3 -1.10933e-15 0)
(3 -1.16518e-15 0)
(3 -1.18699e-15 0)
(3 -1.77773e-15 0)
(3 -2.26699e-15 0)
(3 -1.12825e-15 0)
(3 4.62408e-16 0)
(3 8.86258e-16 0)
(3 9.94286e-16 0)
(3 6.09704e-16 0)
(3 -7.04337e-16 0)
(3 -5.07283e-16 0)
(3 -3.97163e-16 0)
(3 -4.31294e-16 0)
(3 -2.43483e-16 0)
(3 1.16895e-16 0)
(3 -1.99042e-16 0)
(3 -5.97175e-16 0)
(3 -6.61776e-16 0)
(3 -1.10229e-15 0)
(3 -1.09527e-15 0)
(3 -8.89453e-16 0)
(3 -9.07384e-16 0)
(3 -6.84931e-16 0)
(3 -9.73221e-16 0)
(3 -6.33003e-16 0)
(3 -6.70155e-16 0)
(3 -6.41061e-16 0)
(3 -7.28257e-16 0)
(3 -8.71586e-16 0)
(3 -7.64222e-16 0)
(3 -1.24754e-15 0)
(3 -1.24084e-15 0)
(3 -3.03418e-16 0)
(3 -7.08544e-18 0)
(3 1.1219e-16 0)
(3 -6.09283e-17 0)
(3 -3.8188e-17 0)
(3 -1.70937e-16 0)
(3 -1.16971e-16 0)
(3 9.77973e-18 0)
(3 -1.69881e-16 0)
(3 -2.32057e-16 0)
(3 -2.28462e-16 0)
(3 -7.3693e-16 0)
(3 -3.845e-16 0)
(3 3.51126e-16 0)
(3 8.07924e-17 0)
(3 1.02202e-16 0)
(3 -4.00713e-16 0)
(3 -9.1366e-16 0)
(3 -1.86656e-15 0)
(3 -1.23807e-15 0)
(3 -1.22646e-15 0)
(3 -1.68739e-15 0)
(3 -1.65542e-15 0)
(3 -7.2441e-16 0)
(3 3.6337e-16 0)
(3 8.41735e-16 0)
(3 -3.98737e-17 0)
(3 -5.63125e-16 0)
(3 -1.09303e-15 0)
(3 -1.81641e-15 0)
(3 8.46144e-18 0)
(3 -2.08827e-16 0)
(3 4.68536e-16 0)
(3 3.86532e-16 0)
(3 3.46298e-16 0)
(3 1.65236e-16 0)
(3 1.38424e-16 0)
(3 3.10595e-16 0)
(3 1.5554e-16 0)
(3 -3.04178e-16 0)
(3 -1.19082e-15 0)
(3 -1.52293e-15 0)
(3 -9.52327e-16 0)
(3 9.9312e-17 0)
(3 3.69024e-16 0)
(3 3.5021e-16 0)
(3 4.44589e-16 0)
(3 9.99272e-16 0)
(3 1.27032e-15 0)
(3 1.41603e-15 0)
(3 -1.54584e-16 0)
(3 -9.6289e-16 0)
(3 -1.6142e-15 0)
(3 -2.46548e-15 0)
(3 8.96996e-19 0)
(3 -3.14607e-16 0)
(3 -2.97041e-16 0)
(3 -4.49752e-16 0)
(3 -2.24285e-16 0)
(3 9.54944e-17 0)
(3 2.75492e-16 0)
(3 -4.43549e-16 0)
(3 -2.50042e-16 0)
(3 1.37531e-16 0)
(3 -1.45926e-16 0)
(3 5.52824e-16 0)
(3 1.54849e-15 0)
(3 1.17803e-15 0)
(3 1.03161e-15 0)
(3 1.19436e-15 0)
(3 8.3807e-16 0)
(3 2.36521e-16 0)
(3 2.0388e-16 0)
(3 1.09032e-16 0)
(3 -2.62799e-16 0)
(3 -2.85458e-16 0)
(3 -4.37961e-16 0)
(3 -5.83302e-17 0)
(3 -1.51931e-16 0)
(3 1.87135e-17 0)
(3 -3.71681e-16 0)
(3 -6.48713e-16 0)
(3 -5.72604e-16 0)
(3 -6.71585e-17 0)
(3 -6.25381e-17 0)
(3 -9.30913e-16 0)
(3 -1.19289e-15 0)
(3 -4.6014e-16 0)
(3 -1.39122e-16 0)
(3 4.38592e-16 0)
(3 1.06159e-15 0)
(3 1.11332e-15 0)
(3 1.17022e-15 0)
(3 1.96595e-15 0)
(3 1.79075e-15 0)
(3 9.27201e-16 0)
(3 3.00515e-16 0)
(3 8.78229e-17 0)
(3 3.21763e-17 0)
(3 -3.24366e-16 0)
(3 -6.11407e-16 0)
(3 2.64514e-16 0)
(3 6.99211e-17 0)
(3 1.46934e-16 0)
(3 2.38465e-16 0)
(3 6.44819e-16 0)
(3 4.81254e-16 0)
(3 5.81241e-16 0)
(3 3.03714e-17 0)
(3 -2.72308e-16 0)
(3 -2.67207e-16 0)
(3 -3.44684e-16 0)
(3 -2.95997e-16 0)
(3 -5.44448e-16 0)
(3 -5.8875e-16 0)
(3 1.69331e-16 0)
(3 1.02899e-15 0)
(3 9.73656e-16 0)
(3 7.9916e-16 0)
(3 1.10739e-15 0)
(3 9.86443e-16 0)
(3 8.77231e-16 0)
(3 7.62354e-16 0)
(3 1.86705e-16 0)
(3 1.90001e-16 0)
(3 -6.97441e-17 0)
(3 1.3265e-17 0)
(3 -2.66087e-17 0)
(3 2.68778e-17 0)
(3 2.38928e-16 0)
(3 5.46898e-16 0)
(3 4.2953e-16 0)
(3 5.45406e-17 0)
(3 1.41357e-16 0)
(3 5.05654e-16 0)
(3 1.21651e-16 0)
(3 1.29857e-16 0)
(3 -5.29082e-16 0)
(3 -1.75012e-15 0)
(3 -1.80483e-15 0)
(3 -1.93207e-15 0)
(3 -1.74533e-15 0)
(3 -1.40158e-15 0)
(3 -1.45512e-15 0)
(3 -1.21267e-15 0)
(3 -5.19893e-16 0)
(3 -2.48034e-16 0)
(3 1.6698e-16 0)
(3 -1.22841e-16 0)
(3 -1.9095e-16 0)
(3 -7.21582e-18 0)
(3 -2.93751e-17 0)
(3 -7.54453e-17 0)
(3 1.42957e-16 0)
(3 2.28416e-16 0)
(3 -8.50817e-16 0)
(3 -1.13683e-15 0)
(3 -1.01182e-15 0)
(3 -4.47787e-16 0)
(3 -2.83119e-16 0)
(3 7.06558e-17 0)
(3 -1.60863e-16 0)
(3 -3.26678e-16 0)
(3 -8.67664e-16 0)
(3 -1.3432e-15 0)
(3 -8.11744e-16 0)
(3 -5.03121e-16 0)
(3 -6.66495e-16 0)
(3 -1.05053e-15 0)
(3 -7.46851e-16 0)
(3 2.68601e-16 0)
(3 1.23273e-16 0)
(3 -3.54763e-16 0)
(3 1.17664e-16 0)
(3 1.22737e-16 0)
(3 2.93404e-16 0)
(3 2.8127e-16 0)
(3 2.41439e-16 0)
(3 -2.15958e-16 0)
(3 -5.70776e-16 0)
(3 -5.00757e-16 0)
(3 -8.16074e-17 0)
(3 2.95349e-18 0)
(3 1.20379e-16 0)
(3 1.34784e-15 0)
(3 1.57009e-15 0)
(3 1.46595e-15 0)
(3 6.2955e-16 0)
(3 1.01386e-15 0)
(3 1.20969e-15 0)
(3 1.0004e-15 0)
(3 5.53882e-16 0)
(3 3.41181e-16 0)
(3 -9.09093e-19 0)
(3 -2.86832e-16 0)
(3 -6.88964e-16 0)
(3 -2.72321e-16 0)
(3 9.78877e-16 0)
(3 1.58566e-17 0)
(3 1.09086e-16 0)
(3 7.20664e-16 0)
(3 3.10765e-16 0)
(3 3.95342e-16 0)
(3 3.60769e-16 0)
(3 6.59129e-16 0)
(3 7.92796e-16 0)
(3 1.08283e-15 0)
(3 7.3581e-16 0)
(3 3.30088e-16 0)
(3 7.86123e-16 0)
(3 7.95109e-16 0)
(3 1.0525e-15 0)
(3 1.87807e-15 0)
(3 1.46658e-15 0)
(3 6.05407e-17 0)
(3 -1.02045e-15 0)
(3 -1.00357e-15 0)
(3 -1.12923e-15 0)
(3 -1.04616e-15 0)
(3 -1.84471e-16 0)
(3 3.12261e-16 0)
(3 5.71465e-16 0)
(3 -1.21146e-16 0)
(3 -1.93846e-16 0)
(3 -1.33334e-16 0)
(3 -2.995e-17 0)
(3 2.37683e-16 0)
(3 7.15093e-16 0)
(3 7.88563e-16 0)
(3 7.58769e-16 0)
(3 1.41167e-16 0)
(3 3.13015e-17 0)
(3 -3.05038e-16 0)
(3 -5.24101e-16 0)
(3 6.39726e-17 0)
(3 1.31638e-15 0)
(3 1.17437e-15 0)
(3 6.50406e-16 0)
(3 -1.05869e-15 0)
(3 -1.2364e-15 0)
(3 -1.14237e-15 0)
(3 -8.33913e-16 0)
(3 -2.88787e-16 0)
(3 1.2507e-16 0)
(3 -2.5911e-16 0)
(3 1.72443e-16 0)
(3 1.15178e-18 0)
(3 -4.8311e-17 0)
(3 -6.03762e-16 0)
(3 -5.18617e-16 0)
(3 -4.53496e-16 0)
(3 -1.59484e-16 0)
(3 1.74501e-17 0)
(3 2.27921e-16 0)
(3 -4.7676e-16 0)
(3 -4.96199e-16 0)
(3 -2.95971e-16 0)
(3 -3.86065e-16 0)
(3 -1.0632e-16 0)
(3 7.71648e-16 0)
(3 7.84007e-16 0)
(3 4.88988e-16 0)
(3 -2.02038e-16 0)
(3 -4.14361e-16 0)
(3 8.65317e-17 0)
(3 -3.52299e-16 0)
(3 -5.1089e-16 0)
(3 -9.5232e-16 0)
(3 -9.01566e-16 0)
(3 4.31128e-16 0)
(2.9342 0.00843657 0)
(2.84424 0.0784257 0)
(2.75446 0.15149 0)
(2.67803 0.224014 0)
(2.56432 0.366171 0)
(2.51581 0.434882 0)
(2.41639 0.545497 0)
(2.35281 0.628594 0)
(2.31272 0.72378 0)
(2.25386 0.798678 0)
(2.24689 0.852534 0)
(2.28283 0.885311 0)
(2.32887 0.895829 0)
(2.33623 0.888244 0)
(2.34537 0.885347 0)
(2.3469 0.866431 0)
(2.34758 0.858504 0)
(2.3433 0.851363 0)
(2.33973 0.847178 0)
(2.34335 0.848439 0)
(2.34438 0.849378 0)
(2.34282 0.849118 0)
(2.33958 0.849484 0)
(2.33522 0.850133 0)
(2.9989 0.00103801 0)
(2.98911 0.0125646 0)
(2.96025 0.0515774 0)
(2.90542 0.128482 0)
(2.79711 0.279447 0)
(2.69305 0.455276 0)
(2.51825 0.693368 0)
(2.39637 0.896533 0)
(2.22379 1.06628 0)
(2.16304 1.10794 0)
(2.14768 1.03604 0)
(2.18912 0.993536 0)
(2.24589 0.947776 0)
(2.29686 0.904224 0)
(2.33558 0.854827 0)
(2.35192 0.824547 0)
(2.35628 0.832195 0)
(2.35494 0.838545 0)
(2.35372 0.839397 0)
(2.35225 0.840691 0)
(2.35257 0.842861 0)
(2.34858 0.845156 0)
(2.34382 0.84631 0)
(2.3387 0.848796 0)
(3 -3.34179e-06 0)
(2.99999 -1.41532e-05 0)
(2.99998 9.64043e-05 0)
(2.99996 2.35388e-05 0)
(2.99852 0.00204135 0)
(2.99201 0.0115297 0)
(2.96405 0.0552847 0)
(2.90081 0.171485 0)
(2.77614 0.40746 0)
(2.57195 0.724768 0)
(2.46769 0.841902 0)
(2.3372 0.929141 0)
(2.29196 0.914093 0)
(2.29539 0.900968 0)
(2.31108 0.887467 0)
(2.34662 0.866947 0)
(2.35947 0.863254 0)
(2.35994 0.850381 0)
(2.36082 0.840414 0)
(2.35879 0.840666 0)
(2.35685 0.840918 0)
(2.3546 0.842991 0)
(2.34972 0.844868 0)
(2.34527 0.847961 0)
(3 -1.17425e-07 0)
(3 -1.0791e-07 0)
(3 -2.58996e-07 0)
(3 -7.86074e-07 0)
(3.00001 -8.97049e-06 0)
(2.99999 1.99719e-05 0)
(3.00004 -0.000113262 0)
(2.99925 0.00133966 0)
(2.99047 0.0166555 0)
(2.89015 0.175845 0)
(2.7857 0.408414 0)
(2.42746 0.798952 0)
(2.33012 0.895091 0)
(2.279 0.945263 0)
(2.28613 0.949754 0)
(2.30508 0.927235 0)
(2.33633 0.887761 0)
(2.35085 0.85894 0)
(2.35528 0.845528 0)
(2.35836 0.839587 0)
(2.35801 0.842462 0)
(2.3581 0.848299 0)
(2.35772 0.850817 0)
(2.35256 0.851964 0)
(3 3.18642e-10 0)
(3 -1.65207e-09 0)
(3 -2.36186e-08 0)
(3 -7.2573e-08 0)
(3 -7.48426e-07 0)
(3 -7.71668e-07 0)
(3 -3.04172e-06 0)
(3 -2.0576e-06 0)
(3.00004 -8.11367e-05 0)
(2.99923 0.00100238 0)
(2.98776 0.0185556 0)
(2.85641 0.181877 0)
(2.65135 0.465557 0)
(2.4631 0.717273 0)
(2.29454 0.914844 0)
(2.27847 0.904695 0)
(2.30751 0.882781 0)
(2.32081 0.875788 0)
(2.34137 0.868618 0)
(2.34961 0.854935 0)
(2.35681 0.846457 0)
(2.35613 0.848704 0)
(2.35554 0.851738 0)
(2.35156 0.858348 0)
(3 1.03298e-11 0)
(3 1.95291e-12 0)
(3 5.80103e-11 0)
(3 -4.21345e-10 0)
(3 1.04107e-09 0)
(3 -6.57746e-08 0)
(3 -8.22064e-08 0)
(3 -2.05384e-07 0)
(3 -6.56682e-06 0)
(3 -6.31649e-06 0)
(3.00003 -6.24881e-05 0)
(2.99834 0.0021149 0)
(2.9733 0.0368 0)
(2.83719 0.213405 0)
(2.50553 0.606884 0)
(2.41257 0.739668 0)
(2.30691 0.874633 0)
(2.2899 0.892858 0)
(2.30403 0.885377 0)
(2.32565 0.863547 0)
(2.33939 0.84302 0)
(2.34351 0.843682 0)
(2.34674 0.842188 0)
(2.34809 0.841863 0)
(3 -2.16168e-14 0)
(3 4.28576e-13 0)
(3 9.4852e-12 0)
(3 1.96937e-11 0)
(3 2.88248e-11 0)
(3 -1.01634e-10 0)
(3 -4.96556e-10 0)
(3 -1.51198e-09 0)
(3 -2.0111e-08 0)
(3 -4.39793e-07 0)
(3 -7.97049e-06 0)
(3 -4.93337e-06 0)
(3 -1.65869e-05 0)
(2.99586 0.00564442 0)
(2.92991 0.0862237 0)
(2.79167 0.297364 0)
(2.4086 0.735234 0)
(2.35434 0.807414 0)
(2.31508 0.849637 0)
(2.31324 0.847762 0)
(2.32015 0.842459 0)
(2.33404 0.838869 0)
(2.33838 0.838154 0)
(2.34185 0.83589 0)
(3 -6.20763e-17 0)
(3 -4.05026e-15 0)
(3 9.64172e-14 0)
(3 1.67254e-12 0)
(3 6.99145e-12 0)
(3 7.46784e-12 0)
(3 7.65617e-12 0)
(3 2.89917e-12 0)
(3 1.28541e-10 0)
(3 -7.1491e-10 0)
(3 -3.64364e-08 0)
(3 -5.7971e-07 0)
(3 -1.63466e-06 0)
(3.00001 -2.64138e-05 0)
(2.99958 0.000730497 0)
(2.98936 0.016126 0)
(2.85091 0.188803 0)
(2.70726 0.430694 0)
(2.36967 0.795839 0)
(2.2768 0.895748 0)
(2.29587 0.856876 0)
(2.31021 0.847185 0)
(2.31685 0.845685 0)
(2.32491 0.841334 0)
(3 7.38816e-16 0)
(3 -9.55639e-16 0)
(3 -1.74598e-15 0)
(3 8.43617e-15 0)
(3 1.00041e-13 0)
(3 9.16283e-13 0)
(3 1.54857e-12 0)
(3 1.5126e-12 0)
(3 1.44445e-11 0)
(3 1.55386e-11 0)
(3 3.44563e-10 0)
(3 -4.61919e-09 0)
(3 -4.44768e-08 0)
(3 -3.89326e-06 0)
(3.00001 -2.58717e-06 0)
(3 -2.74274e-05 0)
(2.99666 0.00555655 0)
(2.96821 0.0550223 0)
(2.72131 0.36775 0)
(2.55455 0.609085 0)
(2.40367 0.777477 0)
(2.31386 0.856069 0)
(2.30121 0.858419 0)
(2.30583 0.848626 0)
(3 1.05635e-15 0)
(3 1.02351e-15 0)
(3 1.00927e-15 0)
(3 1.23788e-15 0)
(3 2.16026e-16 0)
(3 9.21376e-15 0)
(3 3.43877e-14 0)
(3 1.16613e-13 0)
(3 2.69675e-13 0)
(3 2.23636e-12 0)
(3 3.63485e-11 0)
(3 2.19474e-11 0)
(3 8.88346e-11 0)
(3 -3.01499e-08 0)
(3 -7.08646e-07 0)
(3 -2.12198e-06 0)
(3.00001 -1.0775e-05 0)
(2.99963 0.000586574 0)
(2.9793 0.0307689 0)
(2.90219 0.170164 0)
(2.57461 0.590926 0)
(2.41761 0.777347 0)
(2.34559 0.814336 0)
(2.33464 0.826152 0)
(3 1.38298e-16 0)
(3 3.84408e-16 0)
(3 2.27961e-16 0)
(3 -3.2783e-16 0)
(3 -1.37654e-15 0)
(3 -1.49823e-15 0)
(3 -6.42158e-16 0)
(3 8.62836e-16 0)
(3 6.13781e-16 0)
(3 5.69738e-15 0)
(3 6.32598e-13 0)
(3 2.8359e-12 0)
(3 1.49754e-11 0)
(3 9.72622e-11 0)
(3 -2.32295e-08 0)
(3 -9.86605e-08 0)
(3 -1.54539e-06 0)
(3 -4.73984e-06 0)
(2.99989 0.000210299 0)
(2.99634 0.00739795 0)
(2.91313 0.125083 0)
(2.73394 0.399056 0)
(2.49465 0.692378 0)
(2.33741 0.896857 0)
(3 8.84658e-17 0)
(3 5.90019e-16 0)
(3 9.41807e-16 0)
(3 1.05589e-15 0)
(3 6.13255e-16 0)
(3 5.76465e-16 0)
(3 1.43007e-15 0)
(3 1.62386e-15 0)
(3 9.72398e-16 0)
(3 1.81695e-15 0)
(3 2.05331e-15 0)
(3 3.42785e-14 0)
(3 1.60775e-12 0)
(3 5.10073e-12 0)
(3 9.61941e-11 0)
(3 -2.37069e-09 0)
(3 -1.76243e-08 0)
(3 -1.2723e-06 0)
(3 -1.27233e-06 0)
(2.99999 2.82828e-06 0)
(2.99756 0.0040981 0)
(2.96595 0.0628091 0)
(2.80279 0.313925 0)
(2.51537 0.701012 0)
(3 1.2614e-15 0)
(3 1.15331e-15 0)
(3 4.72224e-16 0)
(3 1.53e-16 0)
(3 1.55353e-16 0)
(3 1.01009e-15 0)
(3 3.96657e-16 0)
(3 -5.59749e-16 0)
(3 1.66895e-16 0)
(3 1.31569e-15 0)
(3 9.2285e-16 0)
(3 4.26461e-15 0)
(3 5.13385e-15 0)
(3 4.27105e-13 0)
(3 1.39614e-11 0)
(3 2.8423e-11 0)
(3 -4.54426e-11 0)
(3 -2.35154e-08 0)
(3 -5.965e-07 0)
(3 -4.70399e-07 0)
(3 -4.4725e-06 0)
(2.99934 0.00130816 0)
(2.97919 0.0382749 0)
(2.8613 0.227394 0)
(3 1.74888e-15 0)
(3 2.25279e-15 0)
(3 1.17309e-15 0)
(3 -4.94854e-17 0)
(3 1.24413e-16 0)
(3 -1.08799e-15 0)
(3 -1.92512e-15 0)
(3 -2.1766e-15 0)
(3 -2.46235e-15 0)
(3 -1.90301e-15 0)
(3 -1.70254e-15 0)
(3 -2.62306e-15 0)
(3 -2.06919e-15 0)
(3 1.68326e-15 0)
(3 8.6532e-13 0)
(3 8.06943e-12 0)
(3 7.08953e-12 0)
(3 1.04326e-11 0)
(3 -2.7532e-08 0)
(3 -1.03438e-07 0)
(3 -2.67661e-07 0)
(3 -1.74968e-06 0)
(2.99963 0.000762616 0)
(2.99243 0.0155961 0)
(3 1.57458e-15 0)
(3 1.51527e-15 0)
(3 1.09717e-15 0)
(3 1.94141e-16 0)
(3 -5.53375e-16 0)
(3 -1.77124e-15 0)
(3 -2.08356e-15 0)
(3 -1.97295e-15 0)
(3 -1.9977e-15 0)
(3 -2.64773e-15 0)
(3 -2.69312e-15 0)
(3 -2.50143e-15 0)
(3 -2.90903e-15 0)
(3 -2.73379e-15 0)
(3 1.44708e-15 0)
(3 3.26354e-13 0)
(3 1.81892e-12 0)
(3 2.10286e-12 0)
(3 -1.17606e-10 0)
(3 -6.09924e-09 0)
(3 -5.32546e-08 0)
(3 -3.29832e-07 0)
(3 5.43684e-06 0)
(3.00003 -8.64424e-05 0)
(3 8.29233e-16 0)
(3 1.10655e-15 0)
(3 -2.97622e-16 0)
(3 -1.22132e-15 0)
(3 -1.81154e-15 0)
(3 -2.33621e-15 0)
(3 -2.49896e-15 0)
(3 -2.19028e-15 0)
(3 -2.49213e-15 0)
(3 -3.29274e-15 0)
(3 -2.90251e-15 0)
(3 -2.86219e-15 0)
(3 -2.90557e-15 0)
(3 -2.36158e-15 0)
(3 -1.68075e-15 0)
(3 -5.30182e-16 0)
(3 5.93896e-14 0)
(3 5.02603e-13 0)
(3 4.99187e-13 0)
(3 -7.41291e-11 0)
(3 -5.15226e-09 0)
(3 -6.25874e-09 0)
(3 -5.17618e-07 0)
(3 9.99635e-07 0)
(3 -2.96877e-16 0)
(3 6.15e-16 0)
(3 -8.21682e-17 0)
(3 -7.37608e-16 0)
(3 -7.41592e-17 0)
(3 -1.17641e-15 0)
(3 -1.66068e-15 0)
(3 -2.54546e-15 0)
(3 -3.07807e-15 0)
(3 -2.66157e-15 0)
(3 -2.25682e-15 0)
(3 -2.01246e-15 0)
(3 -2.05469e-15 0)
(3 -1.94709e-15 0)
(3 -1.59585e-15 0)
(3 -3.27473e-15 0)
(3 -4.65415e-14 0)
(3 -1.14036e-12 0)
(3 -1.81022e-12 0)
(3 2.88166e-11 0)
(3 2.08121e-09 0)
(3 1.47525e-07 0)
(3 -7.85509e-08 0)
(3 2.40807e-06 0)
(3 -4.09791e-16 0)
(3 -9.25542e-16 0)
(3 -1.28414e-15 0)
(3 -1.76254e-15 0)
(3 -1.10271e-15 0)
(3 -7.55829e-16 0)
(3 -5.88938e-16 0)
(3 -9.34967e-16 0)
(3 -8.96761e-16 0)
(3 -7.84025e-16 0)
(3 -1.17888e-15 0)
(3 -1.68685e-15 0)
(3 -1.77341e-15 0)
(3 -2.24654e-15 0)
(3 -5.98795e-15 0)
(3 -3.96509e-13 0)
(3 -1.94108e-12 0)
(3 -2.79758e-12 0)
(3 7.7336e-11 0)
(3 9.68655e-09 0)
(3 1.678e-08 0)
(3 4.86246e-07 0)
(3 2.52663e-06 0)
(2.99997 -9.41565e-05 0)
(3 -4.52038e-16 0)
(3 -1.31012e-15 0)
(3 -1.01971e-15 0)
(3 -9.02861e-16 0)
(3 -1.54305e-15 0)
(3 -1.51768e-15 0)
(3 -6.076e-16 0)
(3 -4.36708e-16 0)
(3 4.64991e-17 0)
(3 7.33487e-17 0)
(3 -3.05649e-16 0)
(3 -5.74905e-16 0)
(3 -1.87755e-15 0)
(3 -7.46108e-15 0)
(3 -8.13573e-13 0)
(3 -8.6725e-12 0)
(3 -8.60762e-12 0)
(3 1.34186e-10 0)
(3 2.25481e-08 0)
(3 1.81496e-07 0)
(3 9.96473e-08 0)
(3 1.77779e-06 0)
(2.99966 -0.0006249 0)
(2.98966 -0.0193996 0)
(3 -1.38431e-15 0)
(3 -1.02095e-15 0)
(3 4.15489e-16 0)
(3 9.55586e-16 0)
(3 4.42204e-16 0)
(3 -5.65285e-17 0)
(3 -4.52165e-16 0)
(3 -9.98024e-16 0)
(3 -1.61396e-15 0)
(3 -8.26204e-16 0)
(3 1.1934e-16 0)
(3 -1.50044e-15 0)
(3 -8.07034e-16 0)
(3 -4.98901e-13 0)
(3 -1.06202e-11 0)
(3 -3.21911e-11 0)
(3 5.02415e-11 0)
(3 2.81912e-08 0)
(3 5.98845e-07 0)
(3 6.70217e-07 0)
(3 -2.07535e-06 0)
(2.99937 -0.00125645 0)
(2.98132 -0.0324984 0)
(2.82628 -0.260749 0)
(3 -2.70982e-16 0)
(3 8.85302e-17 0)
(3 -1.21065e-16 0)
(3 4.13275e-16 0)
(3 9.01549e-16 0)
(3 1.87375e-16 0)
(3 -7.08153e-17 0)
(3 -6.96581e-16 0)
(3 -2.35182e-15 0)
(3 -2.79416e-15 0)
(3 -3.07542e-15 0)
(3 -6.11088e-15 0)
(3 -1.38682e-12 0)
(3 -5.83295e-12 0)
(3 -9.12593e-11 0)
(3 2.18461e-09 0)
(3 2.01421e-08 0)
(3 9.9178e-07 0)
(3 1.95978e-06 0)
(2.99999 -6.15739e-06 0)
(2.9978 -0.00397638 0)
(2.96273 -0.0601324 0)
(2.79263 -0.327042 0)
(2.52613 -0.656525 0)
(3 -1.5924e-15 0)
(3 -8.87319e-16 0)
(3 -1.27571e-15 0)
(3 -1.11935e-15 0)
(3 -1.02429e-15 0)
(3 -1.11052e-15 0)
(3 -6.85515e-16 0)
(3 -6.74392e-16 0)
(3 -2.42242e-15 0)
(3 -1.45202e-14 0)
(3 -5.95043e-13 0)
(3 -2.87035e-12 0)
(3 -1.43603e-11 0)
(3 -9.55672e-11 0)
(3 2.20934e-08 0)
(3 1.00633e-07 0)
(3 1.53316e-06 0)
(3 4.49318e-06 0)
(2.9999 -0.000173834 0)
(2.99573 -0.00843949 0)
(2.9241 -0.110453 0)
(2.68943 -0.438025 0)
(2.51444 -0.676245 0)
(2.33366 -0.858468 0)
(3 -2.46339e-15 0)
(3 -2.84695e-15 0)
(3 -3.08448e-15 0)
(3 -3.69954e-15 0)
(3 -2.51266e-15 0)
(3 -1.2263e-14 0)
(3 -4.05263e-14 0)
(3 -1.12705e-13 0)
(3 -3.06796e-13 0)
(3 -2.17952e-12 0)
(3 -3.69597e-11 0)
(3 -2.06747e-11 0)
(3 -8.16429e-11 0)
(3 3.03031e-08 0)
(3 7.4839e-07 0)
(3 2.07521e-06 0)
(3.00001 1.05859e-05 0)
(2.99963 -0.000591608 0)
(2.97975 -0.0298454 0)
(2.89671 -0.175936 0)
(2.58853 -0.573646 0)
(2.39827 -0.802217 0)
(2.34678 -0.798809 0)
(2.33689 -0.820739 0)
(3 -5.64118e-16 0)
(3 1.04842e-15 0)
(3 7.13104e-16 0)
(3 -9.62437e-15 0)
(3 -9.74816e-14 0)
(3 -9.11907e-13 0)
(3 -1.55371e-12 0)
(3 -1.51222e-12 0)
(3 -1.47415e-11 0)
(3 -1.55342e-11 0)
(3 -3.4541e-10 0)
(3 4.71557e-09 0)
(3 4.42533e-08 0)
(3 3.95597e-06 0)
(3.00001 2.60167e-06 0)
(3 2.58595e-05 0)
(2.99666 -0.00553629 0)
(2.96792 -0.0552089 0)
(2.7214 -0.367148 0)
(2.55914 -0.605098 0)
(2.39995 -0.780214 0)
(2.31004 -0.861868 0)
(2.29737 -0.857983 0)
(2.30744 -0.843557 0)
(3 1.38014e-15 0)
(3 3.46487e-15 0)
(3 -9.57686e-14 0)
(3 -1.6596e-12 0)
(3 -6.97635e-12 0)
(3 -7.45171e-12 0)
(3 -7.67816e-12 0)
(3 -2.91005e-12 0)
(3 -1.37857e-10 0)
(3 7.71093e-10 0)
(3 3.52741e-08 0)
(3 5.84643e-07 0)
(3 1.60437e-06 0)
(3.00001 2.65235e-05 0)
(2.99958 -0.000732546 0)
(2.98939 -0.0161307 0)
(2.85091 -0.188794 0)
(2.70549 -0.431099 0)
(2.36921 -0.795621 0)
(2.27761 -0.891848 0)
(2.29779 -0.857761 0)
(2.31009 -0.849493 0)
(2.31466 -0.845359 0)
(2.32543 -0.840164 0)
(3 2.3559e-14 0)
(3 -4.06373e-13 0)
(3 -9.17555e-12 0)
(3 -1.94321e-11 0)
(3 -2.87923e-11 0)
(3 1.08625e-10 0)
(3 4.85283e-10 0)
(3 1.50554e-09 0)
(3 2.01178e-08 0)
(3 4.3979e-07 0)
(3 7.96826e-06 0)
(3 4.93021e-06 0)
(3 1.57116e-05 0)
(2.99587 -0.00561918 0)
(2.9298 -0.0864117 0)
(2.79224 -0.297021 0)
(2.40891 -0.735211 0)
(2.35231 -0.808547 0)
(2.31527 -0.849104 0)
(2.31387 -0.846945 0)
(2.32068 -0.84241 0)
(2.33369 -0.84055 0)
(2.33796 -0.837164 0)
(2.34227 -0.835344 0)
(3 -1.02775e-11 0)
(3 -1.81217e-12 0)
(3 -5.61125e-11 0)
(3 4.21814e-10 0)
(3 -1.03977e-09 0)
(3 6.57435e-08 0)
(3 8.21643e-08 0)
(3 2.05449e-07 0)
(3 6.56707e-06 0)
(3 6.31745e-06 0)
(3.00003 6.2511e-05 0)
(2.99834 -0.00211486 0)
(2.9733 -0.036809 0)
(2.83729 -0.213295 0)
(2.5054 -0.607082 0)
(2.41283 -0.739415 0)
(2.30703 -0.874651 0)
(2.28972 -0.893259 0)
(2.30409 -0.885442 0)
(2.32602 -0.863049 0)
(2.33947 -0.843177 0)
(2.34322 -0.844064 0)
(2.34667 -0.841807 0)
(2.34817 -0.841765 0)
(3 -3.10995e-10 0)
(3 1.66233e-09 0)
(3 2.38995e-08 0)
(3 7.25518e-08 0)
(3 7.47788e-07 0)
(3 7.71205e-07 0)
(3 3.04334e-06 0)
(3 2.0599e-06 0)
(3.00004 8.11129e-05 0)
(2.99923 -0.00100202 0)
(2.98776 -0.0185589 0)
(2.85641 -0.181885 0)
(2.65141 -0.465492 0)
(2.46293 -0.717362 0)
(2.29455 -0.914833 0)
(2.27854 -0.904528 0)
(2.30753 -0.882783 0)
(2.32092 -0.875853 0)
(2.34124 -0.868763 0)
(2.35005 -0.85449 0)
(2.35684 -0.846568 0)
(2.35606 -0.848949 0)
(2.35546 -0.851865 0)
(2.35151 -0.858381 0)
(3 1.17802e-07 0)
(3 1.10025e-07 0)
(3 2.65922e-07 0)
(3 7.87701e-07 0)
(3.00001 8.95938e-06 0)
(2.99999 -1.99719e-05 0)
(3.00004 0.000113289 0)
(2.99925 -0.00133939 0)
(2.99047 -0.0166568 0)
(2.89016 -0.175831 0)
(2.78571 -0.408434 0)
(2.42747 -0.798964 0)
(2.33013 -0.895078 0)
(2.279 -0.945277 0)
(2.28609 -0.949738 0)
(2.30509 -0.927166 0)
(2.33635 -0.887704 0)
(2.35074 -0.859174 0)
(2.35516 -0.845562 0)
(2.35851 -0.839416 0)
(2.35815 -0.842422 0)
(2.35815 -0.848445 0)
(2.35769 -0.850881 0)
(2.3525 -0.851936 0)
(3 3.33816e-06 0)
(2.99999 1.43431e-05 0)
(2.99998 -9.67214e-05 0)
(2.99996 -2.41853e-05 0)
(2.99852 -0.00204072 0)
(2.99201 -0.0115298 0)
(2.96405 -0.0552798 0)
(2.90082 -0.171473 0)
(2.77614 -0.407466 0)
(2.57191 -0.724812 0)
(2.46772 -0.841893 0)
(2.3372 -0.929117 0)
(2.29197 -0.914101 0)
(2.29543 -0.900959 0)
(2.31104 -0.887522 0)
(2.34661 -0.866845 0)
(2.35962 -0.863215 0)
(2.35985 -0.850529 0)
(2.3607 -0.840438 0)
(2.35876 -0.840596 0)
(2.35691 -0.840891 0)
(2.35467 -0.843049 0)
(2.34973 -0.844889 0)
(2.34525 -0.847883 0)
(2.9989 -0.00103774 0)
(2.98912 -0.0125549 0)
(2.96024 -0.0515835 0)
(2.90541 -0.128511 0)
(2.79713 -0.279437 0)
(2.69303 -0.455273 0)
(2.51824 -0.693366 0)
(2.39639 -0.896515 0)
(2.22384 -1.06627 0)
(2.16303 -1.10794 0)
(2.14759 -1.03607 0)
(2.18924 -0.993485 0)
(2.24581 -0.947749 0)
(2.29692 -0.904233 0)
(2.33548 -0.854937 0)
(2.35183 -0.82444 0)
(2.35645 -0.832175 0)
(2.35492 -0.838597 0)
(2.35364 -0.839443 0)
(2.35219 -0.840694 0)
(2.35259 -0.842855 0)
(2.34863 -0.845157 0)
(2.34385 -0.8463 0)
(2.33872 -0.848745 0)
(2.93419 -0.00847373 0)
(2.84427 -0.0782379 0)
(2.75442 -0.15164 0)
(2.67803 -0.224053 0)
(2.56434 -0.366101 0)
(2.51576 -0.434885 0)
(2.4164 -0.545499 0)
(2.35279 -0.628587 0)
(2.31274 -0.723767 0)
(2.25388 -0.798678 0)
(2.24688 -0.852552 0)
(2.28283 -0.885287 0)
(2.3289 -0.895846 0)
(2.33623 -0.888286 0)
(2.34535 -0.885353 0)
(2.34686 -0.866404 0)
(2.34761 -0.858484 0)