/*--------------------------------*- C++ -*----------------------------------*\
  =========                 |
  \\      /  F ield         | OpenFOAM: The Open Source CFD Toolbox
   \\    /   O peration     | Website:  https://openfoam.org
    \\  /    A nd           | Version:  7
     \\/     M anipulation  |
\*---------------------------------------------------------------------------*/
FoamFile
{
    version     2.0;
    format      ascii;
    class       volScalarField;
    location    "1.6";
    object      p;
}
// * * * * * * * * * * * * * * * * * * * * * * * * * * * * * * * * * * * * * //

dimensions      [1 -1 -2 0 0 0 0];

internalField   nonuniform List<scalar> 
4608
(
1
1
1
1
1
1
1
1
1
1
1
1
1
1
1
1
1
1
1
1
1
1
1
1
1
1
1
1
1
1
1
1
1
1
1
1
1
1
1
1
1
1
1
1
1
1
1
1
1
1
1
1
1
1
1
1
1
1
1
1
1
1
1
1
1
1
1
1
1
1
1
1
1
1
1
1
1
1
1
1
1
1
1
1
1
1
1
1
1
1
1
1
1
1
1
1
1
1
1
1
1
1
1
1
1
1
1
1
1
1
1
1
1
1
1
1
1
1
1
1
1
1
1
1
1
1
1
1
1
1
1
1
1
1
1
1
1
1
1
1
1
1
1
1
1
1
1
1
1
1
1
1
1
1
1
1
1
1
1
1
1
1
1
1
1
1
1
1
1
1
1
1
1
1
1
1
1
1
1
1
1
1
1
1
1
1
1
1
1
1
1
1
1
1
1
1
1
1
1
1
1
1
1
1
1
1
1
1
1
1
1
1
1
1
1
1
1
1
1
1
1
1
1
1
1
1
1
1
1
1
1
1
1
1
1
1
1
1
1
1
1
1
1
1
1
1
1
1
1
1
1
1
1
1
1
1
1
1
1
1
1
1
1
1
1
1
1
1
1
1
1
1
1
1
1
1
1
1
1
1
1
1
1
1
1
1
1
1
1
1
1
1
1
1
1
1
1
1
1
1
1
1
1
1
1
1
1
1
1
1
1
1
1
1
1
1
1
1
1
1
1
1
1
1
1
1
1
1
1
1
1
1
1
1
1
1
1
1
1
1
1
1
1
1
1
1
1
1
1
1
1
1
1
1
1
1
1
1
1
1
1
1
1
1
1
1
1
1
1
1
1
1
1
1
1
1
1
1
1
1
1
1
1
1
1
1
1
1
1
1
1
1
1
1
1
1
1
1
1
1
1
1
1
1
1
1
1
1
1
1
1
1
1
1
1
1
1
1
1
1
1
1
1
1
1
1
1
1
1
1
1
1
1
1
1
1
1
1
1
1
1
1
1
1
1
1
1
1
1
1
1
1
1
1
1
1
1
1
1
1
1
1
1
1
1
1
1
1
1
1
1
1
1
1
1
1
1
1
1
1
1
1
1
1
1
1
1
1
1
1
1
1
1
1
1
1
1
1
1
1
1
1
1
1
1
1
1
1
1
1
1
1
1
1
1
1
1
1
1
1
1
1
1
1
1
1
1
1
1
1
1
1
1
1
1
1
1
1
1
1
1
1
1
1
1
1
1
1
1
1
1
1
1
1
1
1
1
1
1
1
1
1
1
1
1
1
1
1
1
1
1
1
1
1
1
1
1
1
1
1
1
1
1
1
1
1
1
1
1
1
1
1
1
1
1
1
1
1
1
1
1
1
1
1
1
1
1
1
1
1
1
1
1
1
1
1
1
1
1
1
1
1
1
1
1
1
1
1
1
1
1
1
1
1
1
1
1
1
1
1
1
1
1
1
1
1
1
1
1
1
1
1
1
1
1
1
1
1
1
1
1
1
1
1
1
1
1
1
1
1
1
1
1
1
1
1
1
1
1
1
1
1
1
1
1
1
1
1
1
1
1
1
1
1
1
1
1
1
1
1
1
1
1
1
1
1
1
1
1
1
1
1
1
1
1
1
1
1
1
1
1
1
1
1
1
1
1
1
1
1
1
1
1
1
1
1
1
1
1
1
1
1
1
1
1
1
1
1
1
1
1
1
1
1
1
1
1
1
1
1
1
1
1
1
1
1
1
1
1.29265
1.76616
2.31485
2.98913
3.64036
4.28009
4.8502
5.3062
5.37137
5.16666
4.71706
4.22019
3.81969
3.65673
3.56534
3.58219
3.62362
3.66118
3.69071
3.71305
3.73006
3.7574
3.77607
3.77719
1.00201
1.01975
1.08846
1.21221
1.47893
1.85138
2.37982
2.96957
3.59918
3.83332
4.03214
4.04939
3.9877
3.84623
3.75573
3.73943
3.71072
3.69492
3.6977
3.70638
3.72375
3.74667
3.76818
3.77521
0.999999
0.999948
1.00023
1.00016
1.00369
1.02323
1.1092
1.36087
1.98611
2.99662
3.83073
4.30387
4.3655
4.27427
4.09707
3.85017
3.69702
3.69695
3.69768
3.69927
3.70638
3.71911
3.73938
3.76229
1
0.999998
0.999999
0.999999
0.999987
1.00003
0.999922
1.00188
1.03193
1.31329
2.0247
3.16665
3.90108
4.12591
4.0584
3.94592
3.82083
3.78767
3.75586
3.70649
3.69008
3.6962
3.71093
3.73344
1
1
1
1
0.999999
0.999999
0.999989
0.999993
0.999894
1.00179
1.03842
1.36653
2.19811
3.35732
3.9768
4.06866
4.01148
3.95166
3.83426
3.73164
3.70753
3.70643
3.71426
3.7297
1
1
1
1
1
1
1
1
0.999989
0.99999
0.999907
1.00324
1.0786
1.49838
2.51578
3.52224
3.99694
3.98358
3.91777
3.83406
3.77263
3.75525
3.7319
3.73003
1
1
1
1
1
1
1
1
1
0.999999
0.999989
0.999984
1.00003
1.00861
1.1794
1.79434
2.90086
3.59468
3.92128
3.91139
3.84976
3.77894
3.74905
3.71949
1
1
1
1
1
1
1
1
1
1
1
0.999999
0.999998
0.999969
1.00147
1.03123
1.37384
2.20833
3.38526
3.69836
3.76507
3.74733
3.74264
3.71243
1
1
1
1
1
1
1
1
1
1
1
1
1
0.999994
0.999995
0.999977
1.0094
1.11646
1.74722
2.79854
3.58683
3.80661
3.79825
3.77048
1
1
1
1
1
1
1
1
1
1
1
1
1
1
0.999999
0.999995
0.999977
1.00091
1.04764
1.401
2.39126
3.22873
3.71858
3.79305
1
1
1
1
1
1
1
1
1
1
1
1
1
1
1
1
0.999997
0.999993
1.00028
1.01351
1.22238
1.98118
3.17029
3.63948
1
1
1
1
1
1
1
1
1
1
1
1
1
1
1
1
1
0.999999
0.999997
1.00001
1.00603
1.11901
1.71883
2.84946
1
1
1
1
1
1
1
1
1
1
1
1
1
1
1
1
1
1
0.999999
0.999999
0.999999
1.0023
1.06202
1.5287
1
1
1
1
1
1
1
1
1
1
1
1
1
1
1
1
1
1
1
1
1
0.999998
1.00105
1.02965
1
1
1
1
1
1
1
1
1
1
1
1
1
1
1
1
1
1
1
1
1
0.999999
1.00001
0.999998
1
1
1
1
1
1
1
1
1
1
1
1
1
1
1
1
1
1
1
1
1
1
1
0.999998
1
1
1
1
1
1
1
1
1
1
1
1
1
1
1
1
1
1
1
1
1
1
1
0.999998
1
1
1
1
1
1
1
1
1
1
1
1
1
1
1
1
1
1
1
1
1
0.999999
1.00001
1
1
1
1
1
1
1
1
1
1
1
1
1
1
1
1
1
1
1
1
1
1
0.999998
1.00105
1.02969
1
1
1
1
1
1
1
1
1
1
1
1
1
1
1
1
1
1
0.999999
0.999999
0.999999
1.0023
1.06201
1.52862
1
1
1
1
1
1
1
1
1
1
1
1
1
1
1
1
1
0.999999
0.999997
1.00001
1.00603
1.11902
1.7189
2.84898
1
1
1
1
1
1
1
1
1
1
1
1
1
1
1
1
0.999997
0.999993
1.00028
1.01351
1.22237
1.98123
3.17026
3.63941
1
1
1
1
1
1
1
1
1
1
1
1
1
1
0.999999
0.999995
0.999977
1.00091
1.04765
1.40099
2.39129
3.22871
3.71853
3.79306
1
1
1
1
1
1
1
1
1
1
1
1
1
0.999994
0.999995
0.999977
1.0094
1.11646
1.74723
2.79853
3.58686
3.8066
3.79824
3.77047
1
1
1
1
1
1
1
1
1
1
1
0.999999
0.999998
0.999969
1.00147
1.03123
1.37384
2.20833
3.38526
3.69835
3.76507
3.74733
3.74264
3.71243
1
1
1
1
1
1
1
1
1
0.999999
0.999989
0.999984
1.00003
1.00861
1.1794
1.79434
2.90086
3.59469
3.92127
3.91139
3.84976
3.77894
3.74905
3.71949
1
1
1
1
1
1
1
1
0.999989
0.99999
0.999907
1.00324
1.0786
1.49838
2.51578
3.52224
3.99694
3.98358
3.91777
3.83406
3.77263
3.75525
3.7319
3.73003
1
1
1
1
0.999999
0.999999
0.999989
0.999993
0.999894
1.00179
1.03842
1.36653
2.19811
3.35732
3.9768
4.06866
4.01148
3.95166
3.83426
3.73164
3.70753
3.70643
3.71426
3.7297
1
0.999998
0.999999
0.999999
0.999987
1.00003
0.999922
1.00188
1.03193
1.31329
2.0247
3.16665
3.90108
4.12591
4.0584
3.94593
3.82083
3.78767
3.75586
3.70649
3.69008
3.6962
3.71093
3.73344
0.999999
0.999948
1.00023
1.00016
1.00369
1.02323
1.1092
1.36087
1.98611
2.99662
3.83073
4.30387
4.3655
4.27427
4.09707
3.85017
3.69702
3.69695
3.69768
3.69927
3.70638
3.71911
3.73938
3.76229
1.00201
1.01975
1.08846
1.21221
1.47893
1.85138
2.37982
2.96957
3.59918
3.83332
4.03214
4.04939
3.9877
3.84623
3.75573
3.73943
3.71072
3.69492
3.6977
3.70638
3.72375
3.74667
3.76818
3.77521
1.29265
1.76616
2.31485
2.98913
3.64036
4.28009
4.8502
5.3062
5.37137
5.16666
4.71706
4.22019
3.81969
3.65673
3.56534
3.58219
3.62362
3.66118
3.69071
3.71305
3.73006
3.7574
3.77607
3.77719
2.66746
1.68895
1.11728
0.869713
0.712429
0.630092
0.631389
0.694329
0.815389
0.88297
0.903149
0.937078
0.969326
0.98386
1.01669
1.0677
1.07557
1.07537
1.0647
1.0509
1.04832
1.05348
1.07256
1.15572
1.54437
2.77789
4.61459
6.75098
8.85707
9.42415
8.76625
7.62149
6.8465
6.49333
6.31208
6.1345
5.93874
5.74633
5.5461
5.3138
5.04566
4.7801
4.56534
4.40917
4.28503
4.16958
4.05272
3.92853
3.78684
3.62324
3.45522
3.31718
3.21904
3.13892
3.06283
2.98391
2.9019
2.81498
2.72388
2.6381
2.5546
2.47511
2.39461
2.31286
2.23619
2.16698
2.12291
2.09189
2.06209
2.02267
1.97374
1.89648
1.78917
1.77367
1.80257
1.92597
2.22635
2.7442
3.25937
3.69262
4.08369
4.27383
4.40082
4.44343
4.36002
4.23053
4.10074
3.97052
3.83949
3.72691
3.64746
3.59273
3.52605
3.44263
3.36637
3.24828
3.38044
2.77095
2.13263
1.74455
1.52122
1.26943
1.05708
1.03749
1.02001
0.957366
0.919084
0.911076
0.919666
0.931183
0.950547
0.995089
1.01867
1.02196
1.0206
1.01642
1.01522
1.02979
1.13653
1.66585
2.54816
3.06829
3.56485
4.26437
5.62475
6.88801
7.56891
7.41761
7.00282
6.64777
6.38674
6.17514
5.99534
5.81224
5.60583
5.35794
5.0785
4.82029
4.63214
4.49768
4.3715
4.25004
4.12746
3.9984
3.85661
3.69983
3.53736
3.39094
3.28243
3.19841
3.11865
3.03888
2.95817
2.87306
2.78244
2.69313
2.60591
2.52373
2.44549
2.36665
2.28979
2.21913
2.16393
2.1242
2.09287
2.05728
2.01474
1.95515
1.92985
1.98143
2.14079
2.37315
2.64434
2.81303
3.00899
3.24908
3.45718
3.64008
3.75122
3.83632
3.88386
3.92613
3.96348
3.94141
3.87874
3.78407
3.68536
3.61256
3.54227
3.46551
3.39813
3.28134
3.65767
3.34596
2.87314
2.33376
1.98053
1.7172
1.42219
1.20968
1.11324
1.03658
0.954066
0.925662
0.92792
0.932375
0.940069
0.957831
0.97463
0.978972
0.981919
0.99127
1.00846
1.12363
1.79171
2.68719
3.21217
3.30938
3.32422
3.3496
3.62535
4.67203
6.25262
7.11511
7.14808
6.89231
6.43889
6.11019
5.8946
5.68976
5.46275
5.21592
4.98226
4.7986
4.62626
4.44054
4.27669
4.14719
4.02812
3.90769
3.78308
3.64836
3.49791
3.34293
3.20925
3.1176
3.04775
2.97654
2.90154
2.82057
2.72986
2.63868
2.55117
2.46708
2.3862
2.3119
2.24438
2.18359
2.12131
2.08003
2.06069
2.0483
2.04213
2.09698
2.23895
2.47149
2.69764
2.8834
2.96993
2.93061
2.87671
2.87617
2.90949
3.00734
3.15097
3.33873
3.55575
3.74471
3.83347
3.8466
3.82566
3.76469
3.7007
3.65175
3.56787
3.48353
3.42534
3.31059
3.72169
3.60679
3.33883
2.90853
2.44386
2.16818
1.90948
1.55442
1.36314
1.29555
1.19789
1.09764
1.0418
1.00513
0.980536
0.965887
0.945586
0.940069
0.94845
0.968388
1.11848
1.80059
2.85421
3.16706
3.26474
3.28707
3.20419
3.09743
3.01825
3.11689
3.73742
5.18096
6.36717
6.5168
6.44603
6.19756
5.92034
5.63021
5.36092
5.16066
4.99883
4.84325
4.65913
4.44123
4.24565
4.09226
3.97811
3.87577
3.76958
3.64711
3.50081
3.34928
3.20488
3.08827
3.01804
2.96169
2.89493
2.8134
2.7193
2.62267
2.53049
2.44915
2.36841
2.29695
2.23372
2.18516
2.13042
2.09543
2.08765
2.14011
2.30657
2.58233
2.84253
3.05927
3.14838
3.13926
3.08388
2.97334
2.86699
2.79104
2.75855
2.75569
2.77865
2.83983
2.96709
3.17636
3.36026
3.47105
3.54692
3.56117
3.5561
3.54224
3.54014
3.52593
3.48819
3.37572
3.7326
3.70578
3.57923
3.31943
2.92805
2.52742
2.28109
2.02897
1.68478
1.46087
1.39177
1.31188
1.22703
1.12084
1.01424
0.964504
0.947738
0.943529
0.967237
1.21465
1.90972
2.98785
3.28228
3.21984
3.1698
3.10584
2.995
2.90654
2.85622
2.77599
2.79203
3.09013
4.15807
5.4376
6.16366
6.17439
5.97806
5.63155
5.31369
5.06926
4.88359
4.72509
4.57273
4.43043
4.26935
4.09844
3.93704
3.79532
3.67063
3.57611
3.50452
3.40596
3.27636
3.12992
3.00381
2.91199
2.84221
2.77365
2.69871
2.61499
2.51873
2.43126
2.37138
2.32121
2.25274
2.22057
2.19542
2.22497
2.33095
2.58114
2.90504
3.12923
3.20616
3.25166
3.23483
3.18269
3.10224
3.0016
2.89844
2.79692
2.72456
2.68752
2.66796
2.65805
2.66048
2.70356
2.8163
2.95058
3.09304
3.26169
3.35945
3.41281
3.4486
3.46884
3.47224
3.41205
3.74075
3.73439
3.70018
3.55916
3.30661
2.96473
2.57733
2.35017
2.13076
1.8546
1.55704
1.48881
1.46034
1.37689
1.20598
1.04956
1.03796
1.08463
1.38853
2.2101
3.09318
3.42977
3.3642
3.20761
3.0797
2.96796
2.86426
2.79286
2.73043
2.64191
2.55959
2.49011
2.61071
3.25743
4.49485
5.54668
5.62073
5.55223
5.33253
5.08646
4.86557
4.68114
4.52197
4.37727
4.23521
4.07598
3.89862
3.74563
3.63392
3.53735
3.43642
3.3368
3.23829
3.12793
2.99734
2.87662
2.79966
2.74875
2.70669
2.63956
2.54178
2.42332
2.32599
2.28887
2.27889
2.30198
2.42013
2.67633
2.99018
3.24595
3.36671
3.37674
3.39331
3.3773
3.32551
3.25875
3.17562
3.07477
2.95395
2.8242
2.72493
2.67247
2.64145
2.61702
2.59217
2.57669
2.57134
2.58217
2.62591
2.70101
2.84346
3.00864
3.1163
3.20051
3.30825
3.31953
3.72684
3.73199
3.72174
3.68718
3.53666
3.30093
2.99926
2.62657
2.39775
2.22028
1.98748
1.71332
1.56534
1.52181
1.4356
1.2831
1.31528
1.7128
2.68332
3.4801
3.70034
3.59364
3.38447
3.20429
3.06484
2.93589
2.82921
2.74957
2.65707
2.55777
2.45714
2.3958
2.30954
2.32112
2.62371
3.59343
4.66226
5.24804
5.23121
5.0964
4.85717
4.62922
4.46156
4.33409
4.21293
4.05996
3.87056
3.6967
3.57866
3.48188
3.39201
3.30886
3.22722
3.12916
3.0058
2.88297
2.78979
2.71285
2.64228
2.5719
2.49177
2.417
2.33465
2.33162
2.42807
2.68941
3.11921
3.41557
3.54998
3.55103
3.50142
3.45627
3.4158
3.35237
3.2905
3.22131
3.14599
3.05977
2.96306
2.84542
2.73513
2.68132
2.64854
2.61861
2.58526
2.55857
2.53405
2.51246
2.46287
2.395
2.40082
2.47225
2.63615
2.81018
2.99642
3.18403
3.69814
3.70043
3.70104
3.69474
3.65312
3.49913
3.28182
3.01335
2.68106
2.42915
2.28345
2.08285
1.82448
1.67026
1.59536
1.70959
2.3373
3.45411
4.16592
4.13241
3.95141
3.71609
3.48512
3.29865
3.13179
2.98627
2.85772
2.75276
2.6384
2.52705
2.41244
2.34126
2.26031
2.19159
2.13374
2.23698
2.78829
3.79155
4.65538
4.79786
4.74187
4.59463
4.44677
4.30776
4.16998
4.01653
3.83897
3.64847
3.52403
3.4446
3.36677
3.2821
3.19101
3.09179
2.9837
2.86421
2.75586
2.66957
2.60675
2.5495
2.51426
2.45482
2.4867
2.69324
3.08813
3.48012
3.78724
3.84064
3.79596
3.71272
3.60208
3.49848
3.40726
3.3325
3.26643
3.19705
3.1322
3.06272
2.98237
2.8876
2.77417
2.69786
2.65767
2.62044
2.58389
2.55177
2.52365
2.49557
2.44546
2.36056
2.26533
2.24733
2.27314
2.36327
2.49686
2.77869
3.72729
3.70623
3.70175
3.69607
3.69336
3.63611
3.47677
3.25546
3.01265
2.72424
2.48047
2.29917
2.10441
1.99246
2.22381
3.10464
4.33738
4.7852
4.67903
4.40319
4.12102
3.87809
3.65883
3.45277
3.25228
3.07541
2.9297
2.80739
2.68254
2.54731
2.42463
2.3293
2.24047
2.14329
2.07371
2.00292
2.01338
2.24646
3.00847
3.95676
4.44547
4.51862
4.44681
4.29094
4.12801
3.96999
3.81171
3.62935
3.47299
3.39808
3.32747
3.24292
3.15191
3.06133
2.96028
2.84255
2.73889
2.65926
2.61877
2.58641
2.6139
2.75595
3.0943
3.55539
3.89402
3.99362
3.98077
3.92444
3.80458
3.69303
3.60258
3.51614
3.43188
3.35408
3.26875
3.18179
3.116
3.06933
3.0207
2.93568
2.81526
2.72252
2.67406
2.63412
2.5924
2.55224
2.51765
2.48465
2.44177
2.36338
2.26518
2.21504
2.19307
2.18619
2.2027
2.33779
3.78034
3.74027
3.72549
3.72804
3.73375
3.70995
3.6188
3.45314
3.24944
2.99692
2.75962
2.48746
2.5212
3.03206
4.25804
5.40685
5.572
5.36045
4.99687
4.65307
4.34951
4.08199
3.84283
3.61984
3.40738
3.20864
3.02952
2.86441
2.71219
2.56438
2.45469
2.3556
2.258
2.1518
2.06971
1.97747
1.90387
1.85771
1.94394
2.41161
3.25318
3.97174
4.17783
4.16943
4.07003
3.93614
3.80218
3.63348
3.4391
3.32128
3.26215
3.19606
3.11766
3.03984
2.95075
2.84758
2.75887
2.68517
2.67622
2.78686
3.13745
3.57928
3.98485
4.25577
4.27374
4.23708
4.10696
3.90687
3.74427
3.64797
3.57993
3.51808
3.45732
3.38311
3.28905
3.19565
3.11962
3.05812
2.99541
2.92376
2.8408
2.76329
2.7023
2.65268
2.60533
2.56425
2.528
2.48864
2.43704
2.36148
2.26884
2.213
2.18207
2.15827
2.14488
2.13471
3.62182
3.64091
3.67203
3.70294
3.73385
3.72633
3.67683
3.58498
3.41838
3.22883
3.01252
3.20508
4.24458
5.72465
6.39341
6.31618
5.9681
5.56923
5.2118
4.8887
4.57951
4.28328
4.01089
3.76254
3.53827
3.33333
3.14548
2.96442
2.78816
2.61758
2.48382
2.37365
2.27003
2.17389
2.08887
1.99918
1.89531
1.82517
1.75959
1.77101
1.98878
2.61748
3.38772
3.87741
3.95648
3.9203
3.80429
3.63106
3.42245
3.25181
3.17252
3.13296
3.08028
3.0243
2.94997
2.8826
2.79664
2.84524
3.08345
3.61142
4.06451
4.26189
4.35301
4.36706
4.31862
4.24105
4.11914
3.93178
3.74859
3.64313
3.57656
3.52325
3.47117
3.40444
3.31838
3.21948
3.12446
3.05328
2.99033
2.91525
2.84679
2.7909
2.73592
2.67938
2.6244
2.57614
2.53087
2.48455
2.43469
2.37146
2.2842
2.21977
2.18525
2.15546
2.13118
2.09891
3.44492
3.73615
3.77452
3.75335
3.73159
3.72685
3.71358
3.67621
3.54761
3.55245
4.16186
5.73846
7.28999
7.68835
7.43863
6.82274
6.24976
5.7901
5.41011
5.07031
4.75153
4.44988
4.17019
3.91153
3.67343
3.45127
3.24218
3.04196
2.85372
2.68606
2.5438
2.41392
2.29123
2.18726
2.08729
1.99293
1.90071
1.82173
1.74074
1.68615
1.65483
1.73269
2.10364
2.82222
3.41315
3.67346
3.69313
3.6148
3.44291
3.26053
3.13672
3.05075
2.98865
2.96865
2.95241
3.02426
3.24679
3.67265
4.20283
4.59134
4.63238
4.61597
4.53345
4.40675
4.28226
4.19095
4.09091
3.93856
3.77343
3.66201
3.58612
3.52636
3.47132
3.41273
3.34494
3.26208
3.1616
3.05918
2.96429
2.88452
2.83722
2.79937
2.75551
2.70496
2.65041
2.59653
2.54466
2.49263
2.435
2.36913
2.29552
2.21878
2.18063
2.15867
2.13576
2.08974
2.59668
3.39892
3.65767
3.6677
3.70043
3.73875
3.75591
3.77134
4.01756
5.34451
7.5991
8.46789
8.40157
8.12929
7.66659
7.11697
6.55519
6.048
5.61113
5.23236
4.89737
4.58976
4.30009
4.02532
3.76893
3.53171
3.31035
3.09981
2.90303
2.73314
2.58592
2.44704
2.32474
2.22817
2.13059
2.02137
1.91115
1.80867
1.71695
1.64372
1.60904
1.57379
1.58291
1.75794
2.29872
2.92323
3.39378
3.47666
3.44836
3.2981
3.12002
3.01105
2.97868
3.00128
3.21259
3.74844
4.3112
4.76045
4.89766
4.82793
4.68606
4.60539
4.54379
4.4435
4.31949
4.20371
4.08751
3.92828
3.76351
3.66335
3.59391
3.52862
3.46806
3.41571
3.36307
3.28964
3.18925
3.06552
2.94995
2.87695
2.83911
2.80305
2.76136
2.71135
2.66024
2.61011
2.55299
2.49639
2.44613
2.39322
2.32364
2.25208
2.1963
2.15764
2.13388
2.09197
1.43339
2.28767
3.14428
3.61733
3.67784
3.72834
3.91549
4.6204
6.48696
8.84724
9.94449
9.751
9.02286
8.29273
7.78566
7.32515
6.82528
6.30632
5.81453
5.37937
5.00577
4.68078
4.38843
4.11548
3.8571
3.61414
3.38593
3.16669
2.95547
2.77047
2.61967
2.48244
2.35464
2.25019
2.1563
2.04914
1.93926
1.83946
1.73734
1.64626
1.58772
1.53864
1.51363
1.49672
1.5754
1.88844
2.48494
2.9822
3.22831
3.2005
3.11415
3.12203
3.28288
3.63516
4.28363
4.85612
5.23661
5.27467
5.20444
4.96606
4.70096
4.53694
4.49037
4.4193
4.32366
4.21328
4.0835
3.93252
3.78732
3.68653
3.615
3.5482
3.48017
3.41516
3.35794
3.299
3.20007
3.0704
2.96098
2.90253
2.8587
2.81367
2.77491
2.74068
2.69508
2.63326
2.56727
2.50722
2.4488
2.37406
2.29621
2.24197
2.2055
2.17604
2.15297
2.10488
1.03217
1.24262
1.95038
3.02211
3.50142
4.32074
5.7417
7.67378
9.30468
9.9771
9.93251
9.72374
9.28913
8.65204
8.04543
7.48928
6.95667
6.44966
5.97163
5.52722
5.12255
4.7606
4.44103
4.15746
3.89939
3.6577
3.42798
3.20882
3.00046
2.80377
2.63157
2.50529
2.40595
2.30119
2.19044
2.09857
2.02762
1.93482
1.82336
1.68564
1.56797
1.52732
1.50335
1.48492
1.44222
1.45431
1.61976
2.04917
2.65852
2.96913
3.18061
3.82954
4.51637
5.01228
5.36246
5.35199
5.33617
5.27656
5.1405
4.96655
4.77033
4.59296
4.47377
4.39545
4.32667
4.24303
4.12805
3.98175
3.83857
3.7242
3.63966
3.57949
3.5269
3.46187
3.37226
3.24701
3.12768
3.0529
3.01057
2.97181
2.91996
2.8637
2.80708
2.74292
2.6691
2.6055
2.57176
2.53926
2.48221
2.38707
2.30502
2.27246
2.24925
2.22383
2.19991
2.14217
1.00058
1.01228
1.15995
1.91312
3.74727
6.06878
8.20165
9.98131
10.968
10.5463
9.84877
9.58222
9.321
8.85863
8.21457
7.56426
6.99001
6.48425
6.00941
5.55382
5.13411
4.76211
4.43887
4.15927
3.9141
3.69036
3.47332
3.24987
3.0264
2.82446
2.65557
2.51091
2.38392
2.27876
2.18914
2.09692
1.98768
1.86986
1.76636
1.66633
1.58002
1.537
1.49262
1.44383
1.38942
1.33832
1.33852
1.4338
1.84938
2.79606
3.71462
4.84358
5.59849
5.93769
5.9015
5.72089
5.40324
5.18832
5.01197
4.90556
4.78697
4.677
4.55606
4.41083
4.26564
4.13937
4.0321
3.93685
3.84429
3.75699
3.67458
3.59671
3.51974
3.43412
3.32822
3.213
3.11079
3.05182
3.01049
2.95851
2.89873
2.83485
2.77836
2.72009
2.65734
2.61142
2.57085
2.5211
2.4519
2.3485
2.2761
2.24897
2.22564
2.20096
2.17884
2.12636
1.00058
1.01234
1.15932
1.9158
3.77004
6.0218
8.20488
9.98982
10.9682
10.5598
9.87143
9.59934
9.33941
8.87179
8.22028
7.55882
6.97429
6.46377
5.99141
5.5444
5.13517
4.77278
4.45556
4.17687
3.92671
3.69073
3.45977
3.22755
3.00241
2.80302
2.64165
2.50959
2.4021
2.31511
2.2276
2.11775
1.99656
1.87062
1.74654
1.69063
1.6459
1.57965
1.50811
1.44813
1.39233
1.34479
1.34512
1.43648
1.82927
2.6697
3.93845
4.8231
5.44192
5.97972
5.92951
5.62324
5.39712
5.19839
5.00985
4.91943
4.82909
4.704
4.52851
4.37241
4.25101
4.12828
4.00302
3.93315
3.89309
3.82852
3.74175
3.64779
3.55148
3.44526
3.32024
3.20189
3.13076
3.08433
3.03336
2.97156
2.90903
2.84424
2.77296
2.71442
2.66271
2.61812
2.57468
2.52469
2.45192
2.34426
2.27659
2.24966
2.22498
2.19987
2.17861
2.12811
1.03206
1.24318
1.94783
3.02817
3.51522
4.28799
5.74148
7.67544
9.30506
9.98204
9.94324
9.73793
9.30061
8.65686
8.0451
7.48569
6.95451
6.44848
5.96816
5.52179
5.11603
4.75183
4.42974
4.14732
3.89988
3.67974
3.47129
3.25654
3.0346
2.82517
2.64728
2.5051
2.38259
2.26425
2.17074
2.11446
2.04614
1.94005
1.8219
1.71054
1.59956
1.51158
1.48433
1.4671
1.43793
1.45961
1.6064
2.06454
2.62308
2.88204
3.33964
3.81694
4.37433
5.10833
5.26923
5.2748
5.31898
5.29596
5.19246
5.05313
4.83178
4.64428
4.48091
4.35961
4.26278
4.16286
4.05255
3.94538
3.8393
3.75053
3.66783
3.58716
3.50947
3.42697
3.33289
3.23561
3.12527
3.03375
3.00105
2.97574
2.9335
2.86695
2.77237
2.70391
2.67673
2.64757
2.60563
2.54908
2.46667
2.36684
2.30562
2.27414
2.24763
2.22158
2.20065
2.15096
1.43294
2.28986
3.1407
3.61932
3.67749
3.72584
3.91634
4.62713
6.49261
8.84618
9.95409
9.75732
9.02198
8.28864
7.77958
7.31768
6.81878
6.30097
5.8115
5.37942
5.00744
4.68319
4.3932
4.12237
3.86447
3.61917
3.383
3.15847
2.94959
2.76495
2.60555
2.47408
2.37562
2.28828
2.18574
2.05686
1.93658
1.83798
1.75773
1.67405
1.58234
1.51204
1.50239
1.49787
1.57578
1.91302
2.45061
3.01781
3.23279
3.19912
3.11393
3.09358
3.21915
3.64875
4.35202
4.89236
5.23558
5.31824
5.26269
5.02757
4.74029
4.53268
4.46834
4.40213
4.30356
4.17629
4.0604
3.95514
3.83128
3.71787
3.62834
3.55153
3.48066
3.40699
3.32841
3.24698
3.15035
3.05971
2.98155
2.92046
2.86909
2.82486
2.78203
2.73153
2.67401
2.61452
2.56246
2.51142
2.44873
2.37172
2.29298
2.24251
2.21091
2.18133
2.15687
2.10769
2.59608
3.40147
3.65611
3.6666
3.70084
3.73858
3.75589
3.77203
4.01838
5.33929
7.59494
8.46719
8.39715
8.12712
7.66166
7.11229
6.55266
6.04786
5.61368
5.23671
4.90217
4.59408
4.30326
4.02629
3.7679
3.52766
3.30351
3.09502
2.90165
2.73033
2.58482
2.45655
2.33552
2.23009
2.12935
2.0216
1.91439
1.81336
1.732
1.65937
1.61115
1.57043
1.58764
1.7554
2.30828
2.92095
3.36587
3.46983
3.44802
3.32597
3.11693
2.99475
2.97461
3.00147
3.2601
3.80226
4.32805
4.78576
4.91897
4.81112
4.66657
4.56788
4.50866
4.44376
4.33287
4.21597
4.11467
3.98381
3.80334
3.66174
3.57749
3.50556
3.44634
3.40494
3.36419
3.30716
3.22373
3.09611
2.96667
2.89277
2.84753
2.80002
2.74811
2.7018
2.65334
2.60069
2.5481
2.50167
2.45903
2.40052
2.31956
2.24807
2.20377
2.17103
2.14311
2.09234
3.44494
3.73687
3.77472
3.75292
3.73136
3.72684
3.71362
3.67632
3.54771
3.55178
4.15933
5.73549
7.28858
7.68489
7.43479
6.82036
6.24987
5.79215
5.41339
5.07417
4.75527
4.45265
4.17095
3.91057
3.67174
3.44901
3.24055
3.04126
2.85132
2.68243
2.54458
2.4174
2.29019
2.18382
2.08602
1.99458
1.90304
1.82472
1.74409
1.69112
1.66463
1.74255
2.11112
2.78834
3.43437
3.67503
3.69769
3.63088
3.44249
3.25937
3.12655
3.03111
2.97592
2.96642
2.96154
3.04136
3.24348
3.64928
4.19078
4.50156
4.5921
4.59891
4.52593
4.41771
4.29798
4.20326
4.11311
3.96616
3.77326
3.6376
3.55634
3.49285
3.43606
3.3812
3.32461
3.26811
3.19523
3.09124
2.97757
2.89218
2.83442
2.78717
2.73998
2.68999
2.6396
2.59308
2.54627
2.49284
2.4289
2.35973
2.28458
2.22088
2.18246
2.15736
2.13477
2.09279
3.62187
3.64098
3.67211
3.70293
3.73378
3.7263
3.67685
3.58501
3.41844
3.22881
3.01241
3.20481
4.24567
5.72529
6.39418
6.31724
5.9695
5.57184
5.21517
4.89158
4.58128
4.2838
4.01021
3.76096
3.53592
3.33086
3.14383
2.96278
2.78615
2.61733
2.48698
2.37558
2.26737
2.17002
2.08606
1.99825
1.89642
1.82673
1.75738
1.76775
1.98214
2.62979
3.37048
3.86611
3.96865
3.93845
3.82505
3.63024
3.40511
3.23767
3.17647
3.1397
3.08571
3.02881
2.95524
2.88205
2.79258
2.83447
3.06834
3.57465
4.01456
4.28087
4.36692
4.38192
4.33576
4.26022
4.1394
3.94502
3.74086
3.61573
3.54381
3.49097
3.44204
3.38548
3.32144
3.25205
3.17746
3.09578
3.00124
2.90188
2.8234
2.76802
2.7192
2.67046
2.62547
2.5846
2.54218
2.4938
2.43518
2.35231
2.25725
2.20472
2.17903
2.15732
2.13667
2.10697
3.78034
3.74028
3.72548
3.72802
3.73372
3.70993
3.6188
3.45313
3.24951
2.9969
2.75961
2.48752
2.5216
3.03362
4.26006
5.40826
5.57292
5.362
4.99878
4.65441
4.34977
4.08114
3.84123
3.61776
3.40525
3.20725
3.02872
2.86333
2.71227
2.56747
2.4575
2.35507
2.25576
2.1497
2.06756
1.97621
1.90401
1.85604
1.94182
2.40035
3.25102
3.96718
4.16978
4.17219
4.07363
3.93241
3.79392
3.62148
3.42976
3.3247
3.26296
3.19415
3.11953
3.04331
2.95123
2.84654
2.7547
2.68387
2.67823
2.79353
3.12076
3.59655
3.99187
4.25501
4.29537
4.25896
4.13011
3.91786
3.7314
3.61727
3.55063
3.49857
3.45084
3.39208
3.3171
3.23365
3.15196
3.0752
2.99196
2.89656
2.80678
2.74299
2.69439
2.64987
2.61172
2.57928
2.5467
2.50465
2.43984
2.33712
2.24065
2.20047
2.17975
2.16409
2.15289
2.14564
3.72729
3.70623
3.70175
3.69607
3.69336
3.63611
3.47676
3.25544
3.01265
2.72424
2.48042
2.29922
2.10442
1.99265
2.22458
3.10533
4.33767
4.78555
4.67922
4.40316
4.12026
3.87686
3.65756
3.45139
3.25108
3.0748
2.9293
2.80749
2.68394
2.54912
2.42546
2.32849
2.23923
2.14178
2.07186
2.00104
2.0112
2.24301
3.00795
3.93832
4.45525
4.51763
4.44017
4.2886
4.1297
3.96874
3.80263
3.61811
3.48018
3.40652
3.32963
3.24237
3.15373
3.06329
2.95935
2.84022
2.73535
2.65705
2.61897
2.58949
2.61601
2.75784
3.11145
3.53093
3.89923
4.00195
3.98345
3.90651
3.7648
3.66039
3.58437
3.51528
3.44911
3.3826
3.30385
3.21631
3.12905
3.05466
2.98373
2.88926
2.7882
2.72199
2.67604
2.63494
2.59876
2.56874
2.54041
2.50208
2.43856
2.33315
2.24288
2.20921
2.19671
2.19017
2.2055
2.34045
3.69814
3.70043
3.70104
3.69473
3.65312
3.49913
3.28182
3.01335
2.68107
2.42915
2.28345
2.08286
1.82448
1.67026
1.59541
1.70956
2.33667
3.45353
4.16543
4.13164
3.9501
3.7148
3.48407
3.29775
3.13156
2.98672
2.85835
2.7537
2.63972
2.52804
2.41293
2.34101
2.25986
2.1907
2.13208
2.23556
2.78217
3.7904
4.64759
4.78531
4.7446
4.59657
4.44741
4.30969
4.17471
4.01851
3.83281
3.64509
3.52795
3.44621
3.36718
3.28289
3.19265
3.09213
2.98216
2.86214
2.75426
2.66865
2.60773
2.55079
2.51507
2.45402
2.48757
2.67653
3.07235
3.48734
3.78218
3.81332
3.76512
3.70177
3.6218
3.52024
3.43401
3.36649
3.29725
3.21953
3.13391
3.04647
2.95977
2.86193
2.77118
2.71221
2.66854
2.62832
2.58721
2.55776
2.53538
2.50262
2.44112
2.34181
2.25767
2.25066
2.27703
2.3594
2.48981
2.77249
3.72684
3.73199
3.72174
3.68718
3.53666
3.30093
2.99925
2.62657
2.39775
2.22028
1.98747
1.71332
1.56533
1.52182
1.43559
1.28307
1.31512
1.71219
2.68254
3.47897
3.69944
3.59272
3.38393
3.20404
3.06501
2.93669
2.83006
2.75049
2.65816
2.55855
2.45749
2.39584
2.30907
2.32037
2.62302
3.59462
4.65446
5.25006
5.23487
5.10324
4.86485
4.63839
4.4697
4.34084
4.21757
4.05859
3.866
3.69702
3.57903
3.48009
3.39042
3.30953
3.2307
3.13258
3.00701
2.88404
2.7915
2.71369
2.6432
2.57334
2.49231
2.41525
2.33478
2.33158
2.42775
2.69714
3.13022
3.40274
3.54426
3.54701
3.49837
3.46784
3.43287
3.37261
3.30242
3.22554
3.13555
3.03601
2.94001
2.84294
2.75973
2.70799
2.66897
2.63221
2.59069
2.55849
2.53592
2.51114
2.45139
2.40063
2.41642
2.49229
2.64779
2.80973
2.99073
3.1692
3.74076
3.73439
3.70018
3.55916
3.30661
2.96473
2.57733
2.35018
2.13077
1.85459
1.55704
1.48881
1.46035
1.37689
1.20599
1.04956
1.03794
1.08456
1.38831
2.20956
3.09279
3.42926
3.36409
3.20786
3.08014
2.96891
2.8652
2.79354
2.73083
2.64209
2.55943
2.48974
2.61013
3.25482
4.49532
5.54762
5.62347
5.55461
5.33311
5.08724
4.86782
4.68665
4.52519
4.37755
4.23403
4.07283
3.8962
3.74662
3.6354
3.53722
3.43629
3.33919
3.24074
3.1279
2.99497
2.87551
2.80398
2.75906
2.71476
2.64185
2.54128
2.42186
2.32632
2.28944
2.28048
2.30662
2.42957
2.69118
3.00489
3.26568
3.35359
3.38358
3.39445
3.36806
3.30461
3.2239
3.13562
3.0383
2.93598
2.83354
2.74949
2.70408
2.66955
2.6402
2.6073
2.57644
2.55846
2.57262
2.61884
2.71563
2.86611
3.03933
3.14673
3.22083
3.30755
3.304
3.7326
3.70578
3.57923
3.31943
2.92806
2.52742
2.28109
2.02898
1.68478
1.46087
1.39177
1.31189
1.22704
1.12084
1.01424
0.9645
0.947736
0.943532
0.96724
1.21462
1.9099
2.98826
3.28215
3.22022
3.17036
3.10671
2.99587
2.90695
2.85622
2.77576
2.79162
3.08948
4.15567
5.43499
6.16473
6.17634
5.97927
5.6306
5.31207
5.0665
4.8809
4.72234
4.57098
4.42852
4.26815
4.09766
3.93647
3.7949
3.67139
3.58134
3.5101
3.40821
3.2762
3.12801
3.00109
2.91146
2.84398
2.77571
2.69968
2.6146
2.51741
2.43257
2.37273
2.32111
2.25326
2.2229
2.19942
2.23278
2.33774
2.59711
2.89811
3.14942
3.2338
3.24849
3.23215
3.18391
3.09693
2.98904
2.8854
2.79376
2.72883
2.69737
2.68232
2.66928
2.6663
2.70229
2.79131
2.92336
3.08386
3.24631
3.36256
3.44895
3.49043
3.48531
3.46988
3.39635
3.72169
3.60679
3.33883
2.90853
2.44386
2.16818
1.90948
1.55442
1.36314
1.29555
1.19789
1.09765
1.0418
1.00513
0.980539
0.965887
0.945586
0.940071
0.948451
0.9684
1.11858
1.80121
2.85463
3.16744
3.26533
3.28758
3.20454
3.09739
3.01794
3.11632
3.73629
5.18018
6.36266
6.51804
6.44767
6.19838
5.92096
5.63233
5.36223
5.15893
4.99504
4.83821
4.65272
4.4386
4.24684
4.09555
3.97977
3.8745
3.76682
3.64372
3.49754
3.34756
3.20351
3.08747
3.01907
2.96292
2.89437
2.81027
2.71627
2.6206
2.52993
2.44822
2.36679
2.29566
2.23338
2.18547
2.131
2.09561
2.08741
2.14252
2.31111
2.58159
2.84351
3.02224
3.12213
3.12672
3.0998
3.00664
2.88571
2.80749
2.76295
2.74242
2.76038
2.82881
2.97925
3.17062
3.33537
3.4582
3.54709
3.55749
3.5608
3.559
3.5533
3.51959
3.47293
3.35825
3.65767
3.34596
2.87314
2.33377
1.98053
1.7172
1.42219
1.20968
1.11324
1.03658
0.954067
0.925663
0.927917
0.932372
0.94007
0.957833
0.974631
0.978972
0.981919
0.991275
1.00847
1.12374
1.79198
2.68709
3.21261
3.3099
3.32412
3.34928
3.62505
4.67055
6.2522
7.11462
7.14744
6.89293
6.44025
6.11141
5.89618
5.6925
5.46435
5.21591
4.98045
4.79641
4.62513
4.44173
4.28019
4.14935
4.02863
3.90808
3.78349
3.64734
3.49613
3.34166
3.20846
3.11754
3.04788
2.97638
2.90074
2.81913
2.72818
2.63764
2.55021
2.46534
2.3844
2.31035
2.24333
2.1831
2.12091
2.0796
2.061
2.0492
2.04397
2.09055
2.24307
2.46766
2.68578
2.85055
2.96197
2.93807
2.91449
2.9054
2.93261
3.01189
3.14086
3.34467
3.58196
3.73939
3.82641
3.84638
3.82685
3.76834
3.69738
3.63746
3.55837
3.47808
3.41907
3.30744
3.38044
2.77095
2.13263
1.74455
1.52122
1.26943
1.05708
1.03749
1.02001
0.957365
0.919084
0.911077
0.919666
0.931182
0.950547
0.995091
1.01867
1.02196
1.02059
1.01642
1.01523
1.0298
1.13652
1.66554
2.54782
3.06842
3.56479
4.26417
5.62421
6.88659
7.56928
7.41757
7.00316
6.64856
6.38782
6.17572
5.99561
5.81221
5.60636
5.35875
5.07904
4.82105
4.6342
4.49945
4.37205
4.25028
4.12854
4.0001
3.85769
3.7
3.53719
3.39089
3.28249
3.19837
3.11846
3.03871
2.95813
2.87293
2.78219
2.69263
2.60505
2.52288
2.44448
2.36533
2.28823
2.21746
2.16228
2.12283
2.0923
2.05726
2.01398
1.95427
1.93366
1.98124
2.15107
2.38173
2.65514
2.8089
2.99673
3.22893
3.43606
3.60643
3.72858
3.85786
3.89463
3.92577
3.96801
3.94894
3.88403
3.78254
3.67616
3.59368
3.52626
3.45118
3.38994
3.29047
2.66746
1.68895
1.11728
0.869714
0.712428
0.630091
0.631389
0.694329
0.815393
0.88297
0.903147
0.937078
0.969326
0.98386
1.01669
1.06771
1.07557
1.07536
1.0647
1.0509