/*--------------------------------*- C++ -*----------------------------------*\
  =========                 |
  \\      /  F ield         | OpenFOAM: The Open Source CFD Toolbox
   \\    /   O peration     | Website:  https://openfoam.org
    \\  /    A nd           | Version:  7
     \\/     M anipulation  |
\*---------------------------------------------------------------------------*/
FoamFile
{
    version     2.0;
    format      ascii;
    class       volScalarField;
    location    "1.6";
    object      rho;
}
// * * * * * * * * * * * * * * * * * * * * * * * * * * * * * * * * * * * * * //

dimensions      [1 -3 0 0 0 0 0];

internalField   nonuniform List<scalar> 
4608
(
1.40001
1.40001
1.40001
1.40001
1.40001
1.40001
1.40001
1.40001
1.40001
1.40001
1.40001
1.40001
1.40001
1.40001
1.40001
1.40001
1.40001
1.40001
1.40001
1.40001
1.40001
1.40001
1.40001
1.40001
1.40001
1.40001
1.40001
1.40001
1.40001
1.40001
1.40001
1.40001
1.40001
1.40001
1.40001
1.40001
1.40001
1.40001
1.40001
1.40001
1.40001
1.40001
1.40001
1.40001
1.40001
1.40001
1.40001
1.40001
1.40001
1.40001
1.40001
1.40001
1.40001
1.40001
1.40001
1.40001
1.40001
1.40001
1.40001
1.40001
1.40001
1.40001
1.40001
1.40001
1.40001
1.40001
1.40001
1.40001
1.40001
1.40001
1.40001
1.40001
1.40001
1.40001
1.40001
1.40001
1.40001
1.40001
1.40001
1.40001
1.40001
1.40001
1.40001
1.40001
1.40001
1.40001
1.40001
1.40001
1.40001
1.40001
1.40001
1.40001
1.40001
1.40001
1.40001
1.40001
1.40001
1.40001
1.40001
1.40001
1.40001
1.40001
1.40001
1.40001
1.40001
1.40001
1.40001
1.40001
1.40001
1.40001
1.40001
1.40001
1.40001
1.40001
1.40001
1.40001
1.40001
1.40001
1.40001
1.40001
1.40001
1.40001
1.40001
1.40001
1.40001
1.40001
1.40001
1.40001
1.40001
1.40001
1.40001
1.40001
1.40001
1.40001
1.40001
1.40001
1.40001
1.40001
1.40001
1.40001
1.40001
1.40001
1.40001
1.40001
1.40001
1.40001
1.40001
1.40001
1.40001
1.40001
1.40001
1.40001
1.40001
1.40001
1.40001
1.40001
1.40001
1.40001
1.40001
1.40001
1.40001
1.40001
1.40001
1.40001
1.40001
1.40001
1.40001
1.40001
1.40001
1.40001
1.40001
1.40001
1.40001
1.40001
1.40001
1.40001
1.40001
1.40001
1.40001
1.40001
1.40001
1.40001
1.40001
1.40001
1.40001
1.40001
1.40001
1.40001
1.40001
1.40001
1.40001
1.40001
1.40001
1.40001
1.40001
1.40001
1.40001
1.40001
1.40001
1.40001
1.40001
1.40001
1.40001
1.40001
1.40001
1.40001
1.40001
1.40001
1.40001
1.40001
1.40001
1.40001
1.40001
1.40001
1.40001
1.40001
1.40001
1.40001
1.40001
1.40001
1.40001
1.40001
1.40001
1.40001
1.40001
1.40001
1.40001
1.40001
1.40001
1.40001
1.40001
1.40001
1.40001
1.40001
1.40001
1.40001
1.40001
1.40001
1.40001
1.40001
1.40001
1.40001
1.40001
1.40001
1.40001
1.40001
1.40001
1.40001
1.40001
1.40001
1.40001
1.40001
1.40001
1.40001
1.40001
1.40001
1.40001
1.40001
1.40001
1.40001
1.40001
1.40001
1.40001
1.40001
1.40001
1.40001
1.40001
1.40001
1.40001
1.40001
1.40001
1.40001
1.40001
1.40001
1.40001
1.40001
1.40001
1.40001
1.40001
1.40001
1.40001
1.40001
1.40001
1.40001
1.40001
1.40001
1.40001
1.40001
1.40001
1.40001
1.40001
1.40001
1.40001
1.40001
1.40001
1.40001
1.40001
1.40001
1.40001
1.40001
1.40001
1.40001
1.40001
1.40001
1.40001
1.40001
1.40001
1.40001
1.40001
1.40001
1.40001
1.40001
1.40001
1.40001
1.40001
1.40001
1.40001
1.40001
1.40001
1.40001
1.40001
1.40001
1.40001
1.40001
1.40001
1.40001
1.40001
1.40001
1.40001
1.40001
1.40001
1.40001
1.40001
1.40001
1.40001
1.40001
1.40001
1.40001
1.40001
1.40001
1.40001
1.40001
1.40001
1.40001
1.40001
1.40001
1.40001
1.40001
1.40001
1.40001
1.40001
1.40001
1.40001
1.40001
1.40001
1.40001
1.40001
1.40001
1.40001
1.40001
1.40001
1.40001
1.40001
1.40001
1.40001
1.40001
1.40001
1.40001
1.40001
1.40001
1.40001
1.40001
1.40001
1.40001
1.40001
1.40001
1.40001
1.40001
1.40001
1.40001
1.40001
1.40001
1.40001
1.40001
1.40001
1.40001
1.40001
1.40001
1.40001
1.40001
1.40001
1.40001
1.40001
1.40001
1.40001
1.40001
1.40001
1.40001
1.40001
1.40001
1.40001
1.40001
1.40001
1.40001
1.40001
1.40001
1.40001
1.40001
1.40001
1.40001
1.40001
1.40001
1.40001
1.40001
1.40001
1.40001
1.40001
1.40001
1.40001
1.40001
1.40001
1.40001
1.40001
1.40001
1.40001
1.40001
1.40001
1.40001
1.40001
1.40001
1.40001
1.40001
1.40001
1.40001
1.40001
1.40001
1.40001
1.40001
1.40001
1.40001
1.40001
1.40001
1.40001
1.40001
1.40001
1.40001
1.40001
1.40001
1.40001
1.40001
1.40001
1.40001
1.40001
1.40001
1.40001
1.40001
1.40001
1.40001
1.40001
1.40001
1.40001
1.40001
1.40001
1.40001
1.40001
1.40001
1.40001
1.40001
1.40001
1.40001
1.40001
1.40001
1.40001
1.40001
1.40001
1.40001
1.40001
1.40001
1.40001
1.40001
1.40001
1.40001
1.40001
1.40001
1.40001
1.40001
1.40001
1.40001
1.40001
1.40001
1.40001
1.40001
1.40001
1.40001
1.40001
1.40001
1.40001
1.40001
1.40001
1.40001
1.40001
1.40001
1.40001
1.40001
1.40001
1.40001
1.40001
1.40001
1.40001
1.40001
1.40001
1.40001
1.40001
1.40001
1.40001
1.40001
1.40001
1.40001
1.40001
1.40001
1.40001
1.40001
1.40001
1.40001
1.40001
1.40001
1.40001
1.40001
1.40001
1.40001
1.40001
1.40001
1.40001
1.40001
1.40001
1.40001
1.40001
1.40001
1.40001
1.40001
1.40001
1.40001
1.40001
1.40001
1.40001
1.40001
1.40001
1.40001
1.40001
1.40001
1.40001
1.40001
1.40001
1.40001
1.40001
1.40001
1.40001
1.40001
1.40001
1.40001
1.40001
1.40001
1.40001
1.40001
1.40001
1.40001
1.40001
1.40001
1.40001
1.40001
1.40001
1.40001
1.40001
1.40001
1.40001
1.40001
1.40001
1.40001
1.40001
1.40001
1.40001
1.40001
1.40001
1.40001
1.40001
1.40001
1.40001
1.40001
1.40001
1.40001
1.40001
1.40001
1.40001
1.40001
1.40001
1.40001
1.40001
1.40001
1.40001
1.40001
1.40001
1.40001
1.40001
1.40001
1.40001
1.40001
1.40001
1.40001
1.40001
1.40001
1.40001
1.40001
1.40001
1.40001
1.40001
1.40001
1.40001
1.40001
1.40001
1.40001
1.40001
1.40001
1.40001
1.40001
1.40001
1.40001
1.40001
1.40001
1.40001
1.40001
1.40001
1.40001
1.40001
1.40001
1.40001
1.40001
1.40001
1.40001
1.40001
1.40001
1.40001
1.40001
1.40001
1.40001
1.40001
1.40001
1.40001
1.40001
1.40001
1.40001
1.40001
1.40001
1.40001
1.40001
1.40001
1.40001
1.40001
1.40001
1.40001
1.40001
1.40001
1.40001
1.40001
1.40001
1.40001
1.40001
1.40001
1.40001
1.40001
1.40001
1.40001
1.40001
1.40001
1.40001
1.40001
1.40001
1.40001
1.40001
1.40001
1.40001
1.40001
1.40001
1.40001
1.40001
1.40001
1.40001
1.40001
1.40001
1.40001
1.40001
1.40001
1.40001
1.40001
1.40001
1.40001
1.40001
1.40001
1.40001
1.40001
1.40001
1.40001
1.40001
1.40001
1.40001
1.40001
1.40001
1.40001
1.40001
1.40001
1.40001
1.40001
1.40001
1.40001
1.40001
1.40001
1.40001
1.40001
1.40001
1.40001
1.40001
1.40001
1.40001
1.40001
1.40001
1.40001
1.40001
1.40001
1.40001
1.40001
1.40001
1.40001
1.40001
1.40001
1.40001
1.40001
1.40001
1.40001
1.40001
1.40001
1.40001
1.40001
1.40001
1.40001
1.40001
1.40001
1.40001
1.40001
1.40001
1.40001
1.40001
1.40001
1.40001
1.40001
1.40001
1.40001
1.40001
1.40001
1.40001
1.40001
1.40001
1.40001
1.40001
1.40001
1.40001
1.40001
1.40001
1.40001
1.40001
1.67778
2.09057
2.52308
3.00515
3.42695
3.81634
4.13978
4.41293
4.42837
4.30117
4.03259
3.72365
3.46702
3.35871
3.29823
3.30978
3.33804
3.36258
3.38028
3.3932
3.40311
3.42015
3.43261
3.43326
1.40191
1.41826
1.47899
1.58522
1.80464
2.10564
2.51668
2.95927
3.39266
3.53649
3.64762
3.61899
3.57034
3.47136
3.41235
3.40397
3.38677
3.376
3.37642
3.38108
3.39189
3.40662
3.4223
3.42668
1.4
1.39996
1.40022
1.40015
1.40337
1.42112
1.49693
1.70741
2.19127
2.89146
3.42414
3.71169
3.76632
3.71428
3.6072
3.45334
3.35586
3.35347
3.35334
3.35472
3.36061
3.37052
3.38692
3.40369
1.4
1.4
1.4
1.4
1.39999
1.40004
1.39993
1.40171
1.42777
1.65017
2.16987
2.95367
3.40565
3.58389
3.54856
3.4808
3.40061
3.37642
3.35531
3.32451
3.32123
3.3285
3.34219
3.36065
1.40001
1.40001
1.40001
1.4
1.4
1.4
1.39999
1.4
1.39991
1.40163
1.43273
1.69323
2.2896
3.04693
3.44604
3.51655
3.4825
3.44553
3.37274
3.31011
3.30134
3.30798
3.31831
3.32924
1.40001
1.40001
1.40001
1.40001
1.40001
1.4
1.4
1.4
1.39999
1.4
1.39993
1.40295
1.46719
1.79113
2.50644
3.15735
3.45533
3.4493
3.41194
3.36109
3.32412
3.31833
3.30897
3.3072
1.40001
1.40001
1.40001
1.40001
1.40001
1.40001
1.40001
1.40001
1.40001
1.4
1.4
1.39999
1.40005
1.40774
1.54964
2.01662
2.7722
3.21372
3.41471
3.4082
3.36876
3.325
3.3077
3.29016
1.40001
1.40001
1.40001
1.40001
1.40001
1.40001
1.40001
1.40001
1.40001
1.40001
1.4
1.4
1.4
1.39998
1.40141
1.42783
1.70479
2.31895
3.09462
3.28897
3.32187
3.30885
3.30536
3.28631
1.40001
1.40001
1.40001
1.40001
1.40001
1.40001
1.40001
1.40001
1.40001
1.40001
1.40001
1.40001
1.4
1.4
1.4
1.39999
1.40874
1.50144
1.99391
2.72776
3.22719
3.35545
3.3487
3.3297
1.40001
1.40001
1.40001
1.40001
1.40001
1.40001
1.40001
1.40001
1.40001
1.40001
1.40001
1.40001
1.40001
1.4
1.4
1.4
1.39999
1.40089
1.4433
1.73233
2.4641
3.01061
3.31853
3.35523
1.40001
1.40001
1.40001
1.40001
1.40001
1.40001
1.40001
1.40001
1.40001
1.40001
1.40001
1.40001
1.40001
1.40001
1.40001
1.4
1.4
1.4
1.40029
1.41254
1.59308
2.17602
2.98533
3.27944
1.40001
1.40001
1.40001
1.40001
1.40001
1.40001
1.40001
1.40001
1.40001
1.40001
1.40001
1.40001
1.40001
1.40001
1.40001
1.40001
1.4
1.4
1.4
1.40002
1.40574
1.50629
1.98305
2.78703
1.40001
1.40001
1.40001
1.40001
1.40001
1.40001
1.40001
1.40001
1.40001
1.40001
1.40001
1.40001
1.40001
1.40001
1.40001
1.40001
1.40001
1.4
1.4
1.4
1.40001
1.40224
1.45658
1.84539
1.40001
1.40001
1.40001
1.40001
1.40001
1.40001
1.40001
1.40001
1.40001
1.40001
1.40001
1.40001
1.40001
1.40001
1.40001
1.40001
1.40001
1.40001
1.40001
1.4
1.4
1.4
1.40104
1.42765
1.40001
1.40001
1.40001
1.40001
1.40001
1.40001
1.40001
1.40001
1.40001
1.40001
1.40001
1.40001
1.40001
1.40001
1.40001
1.40001
1.40001
1.40001
1.40001
1.40001
1.4
1.4
1.40001
1.40001
1.40001
1.40001
1.40001
1.40001
1.40001
1.40001
1.40001
1.40001
1.40001
1.40001
1.40001
1.40001
1.40001
1.40001
1.40001
1.40001
1.40001
1.40001
1.40001
1.40001
1.40001
1.4
1.4
1.4
1.40001
1.40001
1.40001
1.40001
1.40001
1.40001
1.40001
1.40001
1.40001
1.40001
1.40001
1.40001
1.40001
1.40001
1.40001
1.40001
1.40001
1.40001
1.40001
1.40001
1.40001
1.4
1.4
1.4
1.40001
1.40001
1.40001
1.40001
1.40001
1.40001
1.40001
1.40001
1.40001
1.40001
1.40001
1.40001
1.40001
1.40001
1.40001
1.40001
1.40001
1.40001
1.40001
1.40001
1.4
1.4
1.40001
1.40002
1.40001
1.40001
1.40001
1.40001
1.40001
1.40001
1.40001
1.40001
1.40001
1.40001
1.40001
1.40001
1.40001
1.40001
1.40001
1.40001
1.40001
1.40001
1.40001
1.4
1.4
1.4
1.40104
1.42769
1.40001
1.40001
1.40001
1.40001
1.40001
1.40001
1.40001
1.40001
1.40001
1.40001
1.40001
1.40001
1.40001
1.40001
1.40001
1.40001
1.40001
1.4
1.4
1.4
1.40001
1.40224
1.45658
1.84532
1.40001
1.40001
1.40001
1.40001
1.40001
1.40001
1.40001
1.40001
1.40001
1.40001
1.40001
1.40001
1.40001
1.40001
1.40001
1.40001
1.4
1.4
1.4
1.40002
1.40574
1.5063
1.98311
2.78671
1.40001
1.40001
1.40001
1.40001
1.40001
1.40001
1.40001
1.40001
1.40001
1.40001
1.40001
1.40001
1.40001
1.40001
1.40001
1.4
1.4
1.4
1.40029
1.41254
1.59307
2.17605
2.98532
3.2794
1.40001
1.40001
1.40001
1.40001
1.40001
1.40001
1.40001
1.40001
1.40001
1.40001
1.40001
1.40001
1.40001
1.4
1.4
1.4
1.39999
1.40089
1.4433
1.73232
2.46413
3.01061
3.3185
3.35523
1.40001
1.40001
1.40001
1.40001
1.40001
1.40001
1.40001
1.40001
1.40001
1.40001
1.40001
1.40001
1.4
1.4
1.4
1.39999
1.40874
1.50144
1.99392
2.72775
3.2272
3.35544
3.34869
3.3297
1.40001
1.40001
1.40001
1.40001
1.40001
1.40001
1.40001
1.40001
1.40001
1.40001
1.4
1.4
1.4
1.39998
1.40141
1.42783
1.70478
2.31896
3.09462
3.28897
3.32187
3.30885
3.30536
3.2863
1.40001
1.40001
1.40001
1.40001
1.40001
1.40001
1.40001
1.40001
1.40001
1.4
1.4
1.39999
1.40005
1.40774
1.54964
2.01662
2.7722
3.21373
3.41471
3.4082
3.36876
3.325
3.3077
3.29016
1.40001
1.40001
1.40001
1.40001
1.40001
1.4
1.4
1.4
1.39999
1.4
1.39993
1.40295
1.46719
1.79113
2.50644
3.15735
3.45533
3.4493
3.41194
3.36109
3.32413
3.31833
3.30897
3.3072
1.40001
1.40001
1.40001
1.4
1.4
1.4
1.39999
1.4
1.39991
1.40163
1.43273
1.69323
2.2896
3.04693
3.44604
3.51655
3.4825
3.44553
3.37274
3.31011
3.30134
3.30798
3.31831
3.32924
1.4
1.4
1.4
1.4
1.39999
1.40004
1.39993
1.40171
1.42777
1.65017
2.16987
2.95367
3.40565
3.58389
3.54856
3.4808
3.40061
3.37642
3.35531
3.32451
3.32123
3.3285
3.34219
3.36065
1.4
1.39996
1.40022
1.40015
1.40337
1.42112
1.49693
1.70741
2.19127
2.89146
3.42414
3.71169
3.76632
3.71428
3.6072
3.45334
3.35586
3.35347
3.35334
3.35472
3.36061
3.37052
3.38692
3.40369
1.40191
1.41826
1.47899
1.58522
1.80464
2.10564
2.51668
2.95927
3.39266
3.53649
3.64762
3.61899
3.57034
3.47136
3.41235
3.40397
3.38677
3.376
3.37642
3.38108
3.39189
3.40662
3.4223
3.42668
1.67778
2.09057
2.52308
3.00515
3.42695
3.81634
4.13978
4.41293
4.42837
4.30117
4.03259
3.72365
3.46702
3.35871
3.29823
3.30978
3.33804
3.36258
3.38028
3.3932
3.40311
3.42015
3.43261
3.43326
2.67015
1.92071
1.42621
1.1772
0.996276
0.90747
0.910561
0.970611
1.08369
1.15325
1.17631
1.21158
1.24405
1.25844
1.28848
1.33866
1.34885
1.34919
1.33977
1.32641
1.32409
1.331
1.35013
1.42095
1.7175
2.55859
3.66186
4.78796
5.80569
6.02945
5.72221
5.17829
4.79893
4.62257
4.5314
4.43948
4.33676
4.23548
4.12983
4.00558
3.85917
3.71161
3.59094
3.5028
3.43236
3.36628
3.29885
3.22668
3.14347
3.04603
2.94441
2.85969
2.79849
2.74775
2.69914
2.64867
2.59645
2.54126
2.48304
2.42727
2.37171
2.31768
2.26231
2.20592
2.15311
2.10537
2.07505
2.05377
2.03322
2.00565
1.97092
1.91523
1.83718
1.82586
1.84655
1.93414
2.14151
2.48171
2.80485
3.06683
3.29672
3.40712
3.48116
3.49885
3.44945
3.37361
3.2991
3.22513
3.15106
3.08684
3.04111
3.00873
2.96868
2.91832
2.87215
2.79969
3.16206
2.74074
2.2768
1.97318
1.78179
1.56851
1.38084
1.35203
1.32833
1.26425
1.22072
1.21148
1.22004
1.23086
1.24861
1.2898
1.31278
1.31608
1.31453
1.30953
1.30791
1.32041
1.41283
1.81748
2.42142
2.75701
3.06024
3.46733
4.21656
4.86728
5.18094
5.10015
4.88447
4.69997
4.56607
4.45653
4.36302
4.26816
4.16005
4.02797
3.87533
3.73229
3.62715
3.55236
3.48161
3.41231
3.34166
3.26676
3.18366
3.09071
2.99319
2.9042
2.83748
2.78483
2.73429
2.68349
2.63215
2.57831
2.52074
2.4631
2.40549
2.34992
2.29628
2.24216
2.18958
2.14103
2.1031
2.07588
2.05437
2.02964
1.99974
1.95725
1.93843
1.97421
2.08409
2.24207
2.41984
2.52658
2.64884
2.79629
2.92393
3.03541
3.1036
3.15317
3.17862
3.20062
3.22161
3.20948
3.17441
3.12062
3.06252
3.01871
2.97625
2.9301
2.88958
2.81816
3.339
3.13564
2.81393
2.42618
2.15696
1.9508
1.70692
1.51692
1.42741
1.35626
1.276
1.24651
1.2488
1.25369
1.26145
1.27708
1.29094
1.29423
1.29692
1.30567
1.32063
1.4189
1.93248
2.54081
2.86582
2.91924
2.92844
2.94333
3.1054
3.68763
4.50815
4.9362
4.94201
4.81403
4.58433
4.41702
4.30577
4.19886
4.07925
3.94678
3.81844
3.71655
3.62048
3.51644
3.42371
3.35027
3.28182
3.21173
3.13815
3.05769
2.96724
2.87265
2.78966
2.73235
2.68844
2.64313
2.5952
2.5435
2.48519
2.42591
2.36801
2.31112
2.25562
2.20446
2.15796
2.11618
2.07318
2.04472
2.03149
2.02312
2.01837
2.05535
2.14975
2.30336
2.45138
2.57171
2.62348
2.59707
2.56199
2.5618
2.58334
2.64543
2.73512
2.84924
2.97713
3.08749
3.13604
3.1482
3.1378
3.10396
3.06689
3.03803
2.98802
2.93657
2.90165
2.83199
3.35809
3.29022
3.1193
2.8303
2.50127
2.29816
2.09948
1.8117
1.65187
1.59644
1.51099
1.41807
1.36465
1.33117
1.30857
1.29311
1.27074
1.26369
1.27193
1.29069
1.41905
1.93917
2.65265
2.84326
2.89579
2.90481
2.85094
2.78112
2.72871
2.7875
3.14388
3.92998
4.5231
4.61302
4.57826
4.45296
4.30947
4.15822
4.0157
3.90778
3.82065
3.7356
3.63331
3.5097
3.39831
3.31197
3.24763
3.18911
3.12669
3.05302
2.96393
2.87106
2.78194
2.70984
2.66591
2.63048
2.58839
2.53628
2.47534
2.41233
2.35148
2.29708
2.24224
2.19325
2.14964
2.11639
2.07864
2.05452
2.04934
2.08531
2.19774
2.37859
2.5448
2.67868
2.73305
2.72727
2.69179
2.62022
2.552
2.50411
2.48431
2.48362
2.49809
2.53565
2.61334
2.74125
2.85165
2.91921
2.96617
2.97669
2.97552
2.96817
2.96679
2.95796
2.93511
2.86647
3.34059
3.3294
3.25448
3.09016
2.82986
2.55147
2.37395
2.18343
1.91192
1.73329
1.67831
1.60814
1.52911
1.43173
1.33633
1.29159
1.27274
1.26602
1.28655
1.49405
2.01586
2.72817
2.90912
2.86633
2.8289
2.78432
2.71151
2.65342
2.62067
2.5683
2.5779
2.75583
3.35874
4.04215
4.4168
4.42464
4.32547
4.14873
3.98192
3.85112
3.75135
3.66467
3.57926
3.49783
3.40625
3.30939
3.21834
3.13736
3.06392
3.00622
2.96151
2.90112
2.82249
2.7323
2.65333
2.59606
2.55243
2.50853
2.45977
2.40498
2.34163
2.28389
2.2435
2.20909
2.16204
2.13994
2.12242
2.14197
2.21214
2.37557
2.58205
2.7202
2.76897
2.79376
2.78233
2.74907
2.69813
2.63418
2.56918
2.50545
2.45986
2.43662
2.42404
2.41723
2.41766
2.44442
2.51572
2.5998
2.68798
2.79175
2.85236
2.88518
2.90574
2.91819
2.92032
2.88399
3.32082
3.32175
3.30594
3.22238
3.06408
2.83993
2.57486
2.41462
2.25362
2.04289
1.80834
1.7521
1.72616
1.65276
1.50237
1.36255
1.35244
1.39225
1.6368
2.2256
2.79667
2.99392
2.95079
2.84941
2.76594
2.69308
2.62558
2.57906
2.5389
2.48088
2.42624
2.37975
2.45544
2.8432
3.54063
4.08964
4.13863
4.10275
3.98711
3.85646
3.73719
3.63528
3.54562
3.46401
3.38347
3.29268
3.19119
3.10254
3.03664
2.97886
2.91799
2.8572
2.79636
2.72765
2.6465
2.57119
2.52268
2.49007
2.46303
2.41941
2.35529
2.27682
2.21163
2.18622
2.17898
2.19408
2.27073
2.43381
2.63112
2.78896
2.86125
2.86563
2.87479
2.86514
2.8337
2.79283
2.74115
2.67822
2.60271
2.52137
2.45882
2.42551
2.40549
2.38953
2.37315
2.36285
2.35942
2.36673
2.39523
2.44321
2.53329
2.63671
2.70329
2.75294
2.81801
2.82628
3.29638
3.30251
3.29813
3.28095
3.19175
3.04548
2.85022
2.59828
2.43948
2.31246
2.13827
1.92553
1.80562
1.7685
1.69524
1.56256
1.58447
1.86941
2.52135
3.02378
3.15473
3.08869
2.95736
2.84313
2.7546
2.67213
2.60339
2.55387
2.49516
2.4297
2.36221
2.32107
2.26345
2.27086
2.46142
3.03602
3.63621
3.94655
3.93625
3.86184
3.73129
3.6049
3.51103
3.43978
3.37147
3.28379
3.17325
3.07044
3.00049
2.9429
2.88851
2.83738
2.78701
2.72664
2.65036
2.57294
2.51338
2.46418
2.419
2.37332
2.32058
2.27026
2.21488
2.21246
2.27521
2.44244
2.70826
2.8867
2.96819
2.96746
2.93724
2.90934
2.88495
2.84716
2.8105
2.76941
2.72351
2.66965
2.60865
2.53451
2.46516
2.43121
2.41021
2.39085
2.36941
2.35243
2.33673
2.32311
2.29147
2.24712
2.25078
2.29723
2.40337
2.51327
2.62947
2.74382
3.27518
3.27696
3.27952
3.27649
3.25225
3.15786
3.02212
2.84898
2.62621
2.45179
2.34869
2.19989
2.001
1.88053
1.81871
1.89965
2.32605
3.02071
3.43134
3.41124
3.30372
3.16258
3.02144
2.90613
2.80199
2.71055
2.62951
2.56215
2.48704
2.41389
2.33809
2.29132
2.23649
2.19011
2.15071
2.2185
2.56507
3.15992
3.64599
3.71062
3.67721
3.59204
3.50838
3.43028
3.35251
3.26402
3.15894
3.04387
2.96856
2.9205
2.87284
2.82048
2.76421
2.70304
2.63551
2.55952
2.49003
2.43455
2.39373
2.3561
2.33347
2.2932
2.31264
2.44279
2.68569
2.92181
3.10305
3.1366
3.11107
3.06219
2.9965
2.93454
2.87976
2.83548
2.79733
2.75655
2.71725
2.67429
2.62378
2.56363
2.49158
2.44321
2.41763
2.39387
2.37082
2.35092
2.33338
2.31548
2.28276
2.22669
2.16415
2.15253
2.16979
2.22934
2.31725
2.49529
3.29922
3.28454
3.2812
3.2773
3.27538
3.23954
3.13997
2.9995
2.84104
2.64662
2.47784
2.34798
2.20649
2.11715
2.2672
2.81247
3.53659
3.79009
3.73051
3.57259
3.40817
3.26494
3.1345
3.01054
2.88794
2.77817
2.68661
2.60819
2.52686
2.43753
2.35457
2.28983
2.22971
2.16345
2.11567
2.0657
2.07192
2.22518
2.7068
3.26481
3.53736
3.56483
3.52251
3.43291
3.33974
3.24775
3.15264
3.04045
2.9434
2.89673
2.85289
2.80035
2.74347
2.68631
2.62211
2.54691
2.48027
2.42863
2.40193
2.37996
2.39675
2.48399
2.69023
2.96555
3.15954
3.2246
3.21874
3.18781
3.11871
3.05343
3.00038
2.94936
2.89938
2.85386
2.80387
2.75176
2.71157
2.68275
2.65242
2.59895
2.52217
2.46272
2.43225
2.40745
2.38163
2.35671
2.33501
2.31371
2.28525
2.23294
2.16769
2.13504
2.12141
2.1164
2.12751
2.21633
3.34456
3.31483
3.3018
3.30132
3.30319
3.28779
3.22979
3.12407
2.99166
2.8239
2.66286
2.47294
2.49099
2.79895
3.5139
4.13108
4.22895
4.11667
3.9185
3.7264
3.55311
3.39824
3.25852
3.12663
2.99865
2.8763
2.76364
2.65782
2.55845
2.45986
2.38595
2.3188
2.25152
2.17628
2.11784
2.05165
1.99952
1.96494
2.02466
2.33614
2.8629
3.28463
3.39158
3.38477
3.3238
3.24275
3.1603
3.05551
2.93411
2.85936
2.82187
2.78001
2.72962
2.67946
2.62207
2.55544
2.4968
2.44967
2.4416
2.50945
2.72196
2.98228
3.21898
3.37785
3.39289
3.37331
3.30019
3.18423
3.08904
3.03324
2.99397
2.95855
2.92402
2.88124
2.82543
2.76897
2.72237
2.68402
2.64473
2.59945
2.5462
2.49649
2.45819
2.42773
2.39864
2.37308
2.35016
2.32469
2.29039
2.23921
2.17615
2.13887
2.11826
2.10252
2.09378
2.08674
3.25474
3.26117
3.27689
3.2924
3.31001
3.30553
3.27312
3.21161
3.10106
2.9758
2.82883
2.93949
3.52773
4.32318
4.67294
4.63571
4.45746
4.24854
4.05648
3.87856
3.70471
3.53516
3.37692
3.23046
3.09578
2.96996
2.85197
2.73586
2.62062
2.50703
2.41697
2.34178
2.26967
2.20092
2.13941
2.07403
1.99751
1.94525
1.89598
1.90355
2.0547
2.47318
2.9477
3.24293
3.27575
3.25132
3.1781
3.06981
2.93909
2.83056
2.77896
2.75235
2.7171
2.68061
2.63124
2.58664
2.52792
2.55678
2.70066
3.01315
3.27279
3.38434
3.44837
3.46039
3.43607
3.39308
3.32271
3.21258
3.10451
3.0424
3.00383
2.97405
2.94523
2.90707
2.85588
2.79554
2.73662
2.6918
2.65189
2.60403
2.56019
2.52482
2.49043
2.45536
2.42121
2.39094
2.36195
2.33164
2.29833
2.25476
2.19421
2.14996
2.12594
2.1054
2.08871
2.06741
3.16166
3.34891
3.35254
3.33522
3.31771
3.31278
3.30214
3.27517
3.18818
3.18611
3.52129
4.37048
5.14674
5.35531
5.23632
4.92833
4.63425
4.39309
4.18976
4.00403
3.82599
3.65417
3.49196
3.33919
3.19578
3.05902
2.9273
2.7984
2.67498
2.56353
2.46761
2.37856
2.29318
2.21932
2.14608
2.07539
2.00567
1.94627
1.88486
1.84309
1.81818
1.87433
2.13168
2.60625
2.97213
3.12211
3.12626
3.07673
2.96823
2.85254
2.77133
2.7152
2.67473
2.65949
2.64388
2.68681
2.81864
3.06545
3.37107
3.59141
3.61262
3.60709
3.56619
3.49787
3.42905
3.37885
3.32205
3.23323
3.13505
3.0684
3.02414
2.99073
2.96031
2.92678
2.88605
2.8347
2.77154
2.70654
2.64619
2.59513
2.56496
2.54127
2.51413
2.48266
2.4485
2.41431
2.38043
2.34551
2.30621
2.26071
2.20925
2.15499
2.12811
2.11295
2.09706
2.06578
2.61677
3.15065
3.29812
3.29115
3.30579
3.3285
3.3362
3.34258
3.48297
4.20922
5.34427
5.77919
5.74937
5.62103
5.39549
5.11835
4.82777
4.56126
4.32789
4.12072
3.93294
3.75691
3.58799
3.42464
3.26916
3.12229
2.98226
2.84618
2.71659
2.60327
2.50391
2.40854
2.32299
2.25436
2.18326
2.10154
2.01736
1.93902
1.86895
1.81224
1.78502
1.75703
1.76288
1.88762
2.26271
2.66902
2.961
3.00491
2.98615
2.88987
2.77453
2.70552
2.6806
2.69178
2.81897
3.1387
3.4552
3.69911
3.78642
3.75004
3.67161
3.62643
3.5918
3.53591
3.46603
3.40071
3.33375
3.23969
3.14121
3.0822
3.04235
3.00541
2.97108
2.94064
2.90862
2.86277
2.79892
2.71954
2.64502
2.59822
2.57471
2.55239
2.52656
2.49566
2.46372
2.43161
2.39348
2.35456
2.31917
2.28184
2.23334
2.18283
2.14344
2.1165
2.10043
2.07218
1.76227
2.40664
2.9854
3.27911
3.30492
3.3327
3.44231
3.84796
4.85353
6.01106
6.51813
6.42977
6.0891
5.7395
5.48897
5.25508
4.9966
4.72497
4.46321
4.22534
4.01487
3.82701
3.65461
3.49092
3.3334
3.18258
3.03817
2.8966
2.75747
2.63358
2.53152
2.43751
2.34816
2.2736
2.20504
2.12506
2.04126
1.9646
1.88614
1.81557
1.76963
1.73046
1.71053
1.69401
1.75224
1.97768
2.38515
2.70608
2.85659
2.83753
2.78174
2.78433
2.87714
3.08635
3.47009
3.79351
3.9865
4.0045
3.96758
3.8398
3.69518
3.60368
3.57854
3.53712
3.48118
3.41761
3.34208
3.25247
3.16553
3.10587
3.06429
3.02594
2.98651
2.94781
2.91294
2.87615
2.81271
2.72908
2.65858
2.62129
2.59362
2.56509
2.54059
2.51937
2.49117
2.45196
2.40845
2.36702
2.32516
2.27195
2.21762
2.18023
2.15505
2.13444
2.11868
2.08488
1.42973
1.61176
2.16388
2.89938
3.21022
3.6962
4.4865
5.49523
6.2855
6.5923
6.56472
6.46101
6.25554
5.94867
5.64666
5.36145
5.08397
4.81696
4.56204
4.31989
4.09259
3.88298
3.69346
3.52237
3.36448
3.21426
3.06883
2.92733
2.79027
2.65868
2.54182
2.45503
2.38574
2.31133
2.23087
2.16212
2.10774
2.03714
1.95237
1.84646
1.75488
1.72214
1.70186
1.68566
1.64965
1.65782
1.77984
2.08517
2.4927
2.69572
2.83138
3.22381
3.60521
3.87875
4.08941
4.08016
4.0607
4.02221
3.94446
3.85007
3.74388
3.6461
3.57852
3.53167
3.49
3.44026
3.37322
3.28802
3.20386
3.13609
3.08562
3.05017
3.01951
2.98109
2.92717
2.84872
2.77156
2.72223
2.69461
2.66951
2.63601
2.60001
2.56402
2.52316
2.47631
2.43584
2.41392
2.39119
2.35028
2.28315
2.22599
2.2038
2.1882
2.17076
2.15435
2.11281
1.40058
1.41163
1.54316
2.141
3.36433
4.68191
5.77406
6.62337
7.06157
6.86372
6.53681
6.41433
6.28935
6.06346
5.7412
5.40784
5.10848
4.84128
4.58729
4.33871
4.103
3.88734
3.69491
3.52543
3.37495
3.23588
3.09864
2.95472
2.80811
2.67344
2.55911
2.45944
2.37044
2.29554
2.23029
2.16132
2.07841
1.98843
1.90896
1.83144
1.7637
1.72953
1.69353
1.65312
1.60771
1.56406
1.56312
1.636
1.94389
2.58619
3.1594
3.81367
4.19718
4.38753
4.3732
4.27708
4.09996
3.9783
3.87944
3.82179
3.7582
3.69876
3.62976
3.54553
3.45981
3.38395
3.31976
3.26404
3.21098
3.16075
3.11219
3.06503
3.01818
2.96657
2.90183
2.82904
2.76304
2.72386
2.69583
2.66132
2.62253
2.58183
2.54647
2.51
2.47012
2.44074
2.41395
2.37958
2.33067
2.2579
2.20709
2.18803
2.17177
2.15473
2.13966
2.10235
1.40057
1.41168
1.54232
2.14267
3.37634
4.65876
5.77892
6.62648
7.06066
6.86973
6.5475
6.42263
6.29852
6.07001
5.74394
5.40481
5.09974
4.83008
4.57748
4.33369
4.10393
3.89387
3.70511
3.53622
3.38266
3.2359
3.08972
2.93997
2.79203
2.65885
2.54959
2.45877
2.38329
2.32113
2.25776
2.17628
2.08474
1.98869
1.89329
1.85001
1.81502
1.76293
1.7059
1.65676
1.6102
1.56987
1.56864
1.63896
1.92904
2.50689
3.28382
3.78737
4.12977
4.41712
4.38658
4.21816
4.09443
3.98483
3.88104
3.83027
3.78072
3.71172
3.613
3.52387
3.45309
3.38003
3.3043
3.26279
3.24099
3.20513
3.15513
3.09858
3.03934
2.97407
2.89668
2.82173
2.77563
2.74518
2.71111
2.66986
2.62901
2.5876
2.54276
2.50659
2.47422
2.44549
2.4163
2.38159
2.33055
2.255
2.20726
2.18832
2.17116
2.1539
2.13956
2.10375
1.42963
1.61235
2.16189
2.90316
3.21813
3.67853
4.48838
5.4946
6.28321
6.59465
6.57026
6.46859
6.26163
5.95107
5.64615
5.35905
5.08228
4.81636
4.56041
4.3172
4.08932
3.87828
3.68708
3.51641
3.36467
3.22775
3.09613
2.95812
2.81283
2.67332
2.55299
2.45518
2.36914
2.28448
2.21619
2.17326
2.12069
2.0402
1.9506
1.86536
1.77893
1.7093
1.68673
1.67176
1.64664
1.66223
1.76941
2.09595
2.47163
2.64344
2.92732
3.20924
3.54036
3.95469
4.03022
4.02581
4.04932
4.03591
3.97804
3.90119
3.77758
3.67102
3.58046
3.51341
3.45775
3.39764
3.33055
3.26627
3.20441
3.15393
3.10636
3.05845
3.011
2.95988
2.90172
2.84107
2.7712
2.71192
2.68973
2.67241
2.64431
2.60102
2.5406
2.49871
2.48332
2.46498
2.43636
2.39657
2.33881
2.26911
2.22625
2.2047
2.18673
2.16897
2.15489
2.11948
1.76191
2.4083
2.98299
3.2805
3.30472
3.33119
3.44289
3.85167
4.85563
6.01099
6.52343
6.43344
6.0889
5.73729
5.48552
5.25088
4.99341
4.72279
4.462
4.22546
4.01585
3.82832
3.65721
3.49493
3.33791
3.18592
3.03671
2.89168
2.75404
2.63033
2.52198
2.43135
2.36266
2.30066
2.22637
2.13048
2.03875
1.96301
1.90144
1.83671
1.76493
1.70926
1.70137
1.6956
1.75331
1.99541
2.36152
2.72774
2.85902
2.83656
2.78292
2.76482
2.84096
3.09974
3.50681
3.80319
3.98868
4.03387
4.00338
3.8746
3.71459
3.59786
3.56566
3.53011
3.47295
3.39671
3.32674
3.26371
3.19001
3.1239
3.07262
3.02797
2.98526
2.93937
2.89095
2.84191
2.78257
2.72419
2.6728
2.63314
2.59987
2.57178
2.54561
2.51503
2.47923
2.44035
2.40452
2.36811
2.3233
2.26955
2.21542
2.18076
2.15896
2.1385
2.12173
2.08708
2.61636
3.15231
3.29708
3.29039
3.30607
3.32843
3.33618
3.34301
3.48343
4.20666
5.34262
5.77854
5.74698
5.61967
5.39267
5.11575
4.82663
4.56149
4.32938
4.12306
3.93559
3.75942
3.58986
3.42527
3.26862
3.11978
2.97775
2.8428
2.71543
2.60096
2.50251
2.41504
2.33139
2.25651
2.18242
2.10104
2.0191
1.94218
1.88019
1.82383
1.78629
1.7544
1.76678
1.88681
2.26965
2.66703
2.94279
3.00061
2.98614
2.90758
2.77268
2.69525
2.67853
2.6925
2.84835
3.16866
3.46687
3.72125
3.79762
3.737
3.657
3.60379
3.57188
3.53692
3.47454
3.4068
3.34689
3.26985
3.16375
3.08085
3.03194
2.98953
2.95385
2.92901
2.90501
2.87139
2.82042
2.73957
2.65607
2.60843
2.58006
2.55114
2.51968
2.49131
2.46032
2.42547
2.38961
2.35707
2.32693
2.2866
2.23106
2.1809
2.14949
2.12669
2.10759
2.0728
3.16167
3.34932
3.35269
3.33494
3.31754
3.31277
3.30217
3.27524
3.18829
3.18565
3.51996
4.36888
5.14582
5.35344
5.23424
4.92707
4.63442
4.39427
4.19152
4.00604
3.828
3.65578
3.49249
3.33866
3.19471
3.05745
2.92604
2.79772
2.67313
2.56074
2.46794
2.3813
2.29284
2.21665
2.1444
2.07582
2.0068
1.94808
1.88729
1.84698
1.82614
1.88219
2.13798
2.58472
2.98378
3.12192
3.12925
3.08717
2.96859
2.85208
2.76472
2.70275
2.66665
2.65782
2.6501
2.69741
2.81682
3.05279
3.3642
3.53904
3.58928
3.60021
3.56209
3.50385
3.43832
3.38518
3.33275
3.24709
3.13472
3.05513
3.00675
2.96915
2.93646
2.90584
2.87293
2.83818
2.79173
2.72566
2.65408
2.59991
2.56374
2.53481
2.50599
2.47503
2.44309
2.41295
2.382
2.34613
2.30258
2.25474
2.20231
2.15752
2.1305
2.11308
2.09767
2.06938
3.25476
3.26122
3.27695
3.29239
3.30996
3.30551
3.27313
3.21163
3.1011
2.97578
2.82876
2.93936
3.52838
4.32351
4.67326
4.63621
4.45821
4.24995
4.05828
3.88008
3.70566
3.53548
3.37658
3.22952
3.09427
2.96828
2.85077
2.73465
2.61915
2.50686
2.41935
2.34322
2.26748
2.19756
2.13666
2.07271
1.99785
1.94613
1.89444
1.90137
2.05058
2.4817
2.94006
3.23401
3.28241
3.26215
3.19132
3.07
2.92866
2.82179
2.78115
2.75627
2.7204
2.68341
2.63439
2.58613
2.52525
2.54995
2.69201
2.99279
3.24509
3.39622
3.45764
3.46883
3.44493
3.40274
3.33319
3.21981
3.10001
3.02639
2.98428
2.95431
2.92753
2.89588
2.85796
2.81519
2.76861
2.7176
2.65822
2.59545
2.54607
2.51169
2.48156
2.4513
2.42312
2.39725
2.37013
2.33871
2.29904
2.24145
2.1759
2.14014
2.12272
2.10787
2.09383
2.07438
3.34456
3.31484
3.30179
3.30131
3.30318
3.28778
3.22979
3.12407
2.99171
2.82389
2.66285
2.47298
2.49126
2.79991
3.51493
4.13167
4.22945
4.11753
3.91956
3.72715
3.55326
3.39777
3.25758
3.12536
2.99729
2.87538
2.76309
2.65709
2.5585
2.46208
2.38805
2.31836
2.24956
2.17431
2.11587
2.05037
1.99934
1.96376
2.02324
2.32876
2.86182
3.28167
3.38868
3.38581
3.32629
3.24122
3.15561
3.04804
2.92814
2.86135
2.82238
2.77882
2.73089
2.68174
2.62231
2.55464
2.49412
2.4485
2.44329
2.51414
2.71239
2.99206
3.22308
3.37535
3.40598
3.38586
3.31288
3.19053
3.08151
3.01468
2.9763
2.94703
2.92039
2.88667
2.84212
2.79161
2.74221
2.69517
2.64251
2.58171
2.52485
2.48482
2.45455
2.4269
2.40329
2.38324
2.36282
2.33558
2.29232
2.22265