/*--------------------------------*- C++ -*----------------------------------*\
  =========                 |
  \\      /  F ield         | OpenFOAM: The Open Source CFD Toolbox
   \\    /   O peration     | Website:  https://openfoam.org
    \\  /    A nd           | Version:  7
     \\/     M anipulation  |
\*---------------------------------------------------------------------------*/
FoamFile
{
    version     2.0;
    format      ascii;
    class       volScalarField;
    location    "1.6";
    object      T;
}
// * * * * * * * * * * * * * * * * * * * * * * * * * * * * * * * * * * * * * //

dimensions      [0 0 0 1 0 0 0];

internalField   nonuniform List<scalar> 
4608
(
1
1
1
1
1
1
1
1
1
1
1
1
1
1
1
1
1
1
1
1
1
1
1
1
1
1
1
1
1
1
1
1
1
1
1
1
1
1
1
1
1
1
1
1
1
1
1
1
1
1
1
1
1
1
1
1
1
1
1
1
1
1
1
1
1
1
1
1
1
1
1
1
1
1
1
1
1
1
1
1
1
1
1
1
1
1
1
1
1
1
1
1
1
1
1
1
1
1
1
1
1
1
1
1
1
1
1
1
1
1
1
1
1
1
1
1
1
1
1
1
1
1
1
1
1
1
1
1
1
1
1
1
1
1
1
1
1
1
1
1
1
1
1
1
1
1
1
1
1
1
1
1
1
1
1
1
1
1
1
1
1
1
1
1
1
1
1
1
1
1
1
1
1
1
1
1
1
1
1
1
1
1
1
1
1
1
1
1
1
1
1
1
1
1
1
1
1
1
1
1
1
1
1
1
1
1
1
1
1
1
1
1
1
1
1
1
1
1
1
1
1
1
1
1
1
1
1
1
1
1
1
1
1
1
1
1
1
1
1
1
1
1
1
1
1
1
1
1
1
1
1
1
1
1
1
1
1
1
1
1
1
1
1
1
1
1
1
1
1
1
1
1
1
1
1
1
1
1
1
1
1
1
1
1
1
1
1
1
1
1
1
1
1
1
1
1
1
1
1
1
1
1
1
1
1
1
1
1
1
1
1
1
1
1
1
1
1
1
1
1
1
1
1
1
1
1
1
1
1
1
1
1
1
1
1
1
1
1
1
1
1
1
1
1
1
1
1
1
1
1
1
1
1
1
1
1
1
1
1
1
1
1
1
1
1
1
1
1
1
1
1
1
1
1
1
1
1
1
1
1
1
1
1
1
1
1
1
1
1
1
1
1
1
1
1
1
1
1
1
1
1
1
1
1
1
1
1
1
1
1
1
1
1
1
1
1
1
1
1
1
1
1
1
1
1
1
1
1
1
1
1
1
1
1
1
1
1
1
1
1
1
1
1
1
1
1
1
1
1
1
1
1
1
1
1
1
1
1
1
1
1
1
1
1
1
1
1
1
1
1
1
1
1
1
1
1
1
1
1
1
1
1
1
1
1
1
1
1
1
1
1
1
1
1
1
1
1
1
1
1
1
1
1
1
1
1
1
1
1
1
1
1
1
1
1
1
1
1
1
1
1
1
1
1
1
1
1
1
1
1
1
1
1
1
1
1
1
1
1
1
1
1
1
1
1
1
1
1
1
1
1
1
1
1
1
1
1
1
1
1
1
1
1
1
1
1
1
1
1
1
1
1
1
1
1
1
1
1
1
1
1
1
1
1
1
1
1
1
1
1
1
1
1
1
1
1
1
1
1
1
1
1
1
1
1
1
1
1
1
1
1
1
1
1
1
1
1
1
1
1
1
1
1
1
1
1
1
1
1
1
1
1
1
1
1
1
1
1
1
1
1
1
1
1
1
1
1
1
1
1
1
1
1
1
1
1
1
1
1
1
1
1
1
1
1
1
1
1
1
1
1
1
1
1
1
1
1
1
1
1
1
1
1
1
1
1
1
1
1
1
1
1
1
1
1
1
1
1
1
1
1
1
1
1
1
1
1
1
1
1
1
1
1
1
1
1
1
1
1
1
1
1
1
1
1
1
1
1
1
1
1
1
1
1
1
1
1
1
1
1
1
1
1
1
1
1
1
1
1
1
1
1
1
1
1
1
1
1
1
1
1
1
1
1
1
1
1
1
1.07864
1.18276
1.28446
1.39254
1.48719
1.57013
1.64026
1.68339
1.69813
1.68172
1.63763
1.58669
1.54241
1.52423
1.51339
1.51523
1.51978
1.52433
1.52857
1.53197
1.53451
1.53806
1.54009
1.54025
1.00065
1.00662
1.03033
1.07058
1.14732
1.23095
1.32387
1.40488
1.48523
1.51751
1.54759
1.5665
1.56366
1.55119
1.54089
1.53797
1.53392
1.53226
1.53322
1.5347
1.53698
1.53975
1.5415
1.5424
1
0.999983
1.00008
1.00006
1.00128
1.00803
1.03739
1.11586
1.26893
1.45092
1.56625
1.62337
1.62273
1.61108
1.59013
1.56088
1.54233
1.5434
1.54377
1.54379
1.54405
1.5448
1.5457
1.5475
1
0.999999
1
1
0.999995
1.00001
0.999972
1.00066
1.01186
1.1142
1.30634
1.50095
1.60367
1.61174
1.60115
1.58708
1.57301
1.57052
1.56713
1.56087
1.55549
1.55466
1.55447
1.5553
1
1
1
1
1
1
0.999997
0.999998
0.999961
1.00063
1.0147
1.12988
1.34406
1.54262
1.61563
1.61981
1.61266
1.60566
1.59158
1.57829
1.57226
1.56864
1.56706
1.5684
1
1
1
1
1
1
1
1
0.999997
0.999997
0.999962
1.00114
1.0292
1.17118
1.40522
1.5618
1.61945
1.61686
1.60756
1.59701
1.5889
1.58434
1.57895
1.579
1
1
1
1
1
1
1
1
1
1
0.999996
0.999998
0.999997
1.00306
1.06551
1.24569
1.46498
1.56596
1.60769
1.6067
1.5999
1.59114
1.58681
1.58269
1
1
1
1
1
1
1
1
1
1
1
1
0.999999
0.999988
1.00047
1.01113
1.12823
1.33322
1.53149
1.57427
1.58679
1.58553
1.58522
1.58154
1
1
1
1
1
1
1
1
1
1
1
1
1
0.999998
0.999998
0.999988
1.00314
1.04103
1.22679
1.43633
1.55602
1.58824
1.58795
1.58534
1
1
1
1
1
1
1
1
1
1
1
1
1
1
1
0.999998
0.999991
1.00028
1.01622
1.13224
1.35862
1.50143
1.56877
1.58269
1
1
1
1
1
1
1
1
1
1
1
1
1
1
1
1
0.999999
0.999998
1.00008
1.00452
1.07423
1.27465
1.48674
1.55371
1
1
1
1
1
1
1
1
1
1
1
1
1
1
1
1
1
1
0.999999
1
1.00193
1.04005
1.21347
1.43137
1
1
1
1
1
1
1
1
1
1
1
1
1
1
1
1
1
1
1
1
0.999999
1.00071
1.02076
1.15975
1
1
1
1
1
1
1
1
1
1
1
1
1
1
1
1
1
1
1
1
1
0.999999
1.00031
1.00972
1
1
1
1
1
1
1
1
1
1
1
1
1
1
1
1
1
1
1
1
1
1
1
0.999993
1
1
1
1
1
1
1
1
1
1
1
1
1
1
1
1
1
1
1
1
1
1
1
0.999999
1
1
1
1
1
1
1
1
1
1
1
1
1
1
1
1
1
1
1
1
1
1
1
0.999999
1
1
1
1
1
1
1
1
1
1
1
1
1
1
1
1
1
1
1
1
1
1
1
0.999994
1
1
1
1
1
1
1
1
1
1
1
1
1
1
1
1
1
1
1
1
1
0.999999
1.00031
1.00973
1
1
1
1
1
1
1
1
1
1
1
1
1
1
1
1
1
1
1
1
0.999999
1.00071
1.02076
1.15973
1
1
1
1
1
1
1
1
1
1
1
1
1
1
1
1
1
1
0.999999
1
1.00193
1.04005
1.21348
1.43129
1
1
1
1
1
1
1
1
1
1
1
1
1
1
1
1
0.999999
0.999998
1.00008
1.00452
1.07423
1.27466
1.48674
1.55369
1
1
1
1
1
1
1
1
1
1
1
1
1
1
1
0.999998
0.999991
1.00028
1.01622
1.13224
1.35863
1.50143
1.56877
1.58269
1
1
1
1
1
1
1
1
1
1
1
1
1
0.999998
0.999998
0.999988
1.00314
1.04103
1.22679
1.43633
1.55603
1.58824
1.58795
1.58533
1
1
1
1
1
1
1
1
1
1
1
1
0.999999
0.999988
1.00047
1.01113
1.12822
1.33322
1.53149
1.57427
1.58679
1.58553
1.58522
1.58154
1
1
1
1
1
1
1
1
1
1
0.999996
0.999998
0.999997
1.00306
1.06551
1.24569
1.46498
1.56596
1.60769
1.6067
1.5999
1.59114
1.58681
1.58269
1
1
1
1
1
1
1
1
0.999997
0.999997
0.999962
1.00114
1.0292
1.17118
1.40522
1.5618
1.61945
1.61686
1.60756
1.59701
1.5889
1.58434
1.57895
1.579
1
1
1
1
1
1
0.999997
0.999998
0.999961
1.00063
1.0147
1.12988
1.34406
1.54262
1.61563
1.61981
1.61266
1.60566
1.59158
1.57829
1.57226
1.56864
1.56706
1.5684
1
0.999999
1
1
0.999995
1.00001
0.999972
1.00066
1.01186
1.1142
1.30634
1.50095
1.60367
1.61174
1.60115
1.58708
1.57301
1.57052
1.56713
1.56087
1.55549
1.55466
1.55447
1.5553
1
0.999983
1.00008
1.00006
1.00128
1.00803
1.03739
1.11586
1.26893
1.45092
1.56625
1.62337
1.62273
1.61108
1.59013
1.56088
1.54233
1.5434
1.54377
1.54379
1.54405
1.5448
1.5457
1.5475
1.00065
1.00662
1.03033
1.07058
1.14732
1.23095
1.32387
1.40488
1.48523
1.51751
1.54759
1.5665
1.56366
1.55119
1.54089
1.53797
1.53392
1.53226
1.53322
1.5347
1.53698
1.53975
1.5415
1.5424
1.07864
1.18276
1.28446
1.39254
1.48719
1.57013
1.64026
1.68339
1.69813
1.68172
1.63763
1.58669
1.54241
1.52423
1.51339
1.51523
1.51978
1.52433
1.52857
1.53197
1.53451
1.53806
1.54009
1.54025
1.39859
1.23108
1.09675
1.03432
1.00113
0.972079
0.970772
1.0015
1.05339
1.07189
1.0749
1.08281
1.09084
1.09454
1.10469
1.11663
1.11636
1.11586
1.11258
1.10921
1.10843
1.1081
1.11218
1.13869
1.25888
1.52
1.76425
1.97399
2.13583
2.18824
2.14476
2.06055
1.99735
1.96659
1.95016
1.93454
1.91716
1.8994
1.88012
1.85725
1.83043
1.80303
1.7799
1.76226
1.74779
1.73409
1.71994
1.70453
1.68654
1.6653
1.64289
1.62398
1.6104
1.59931
1.58865
1.5772
1.5647
1.5508
1.5358
1.52161
1.50797
1.4951
1.48188
1.46788
1.45403
1.44097
1.4323
1.42599
1.41989
1.41188
1.40201
1.3863
1.36341
1.35999
1.36666
1.39409
1.45547
1.54808
1.62687
1.68568
1.7342
1.75614
1.76986
1.77796
1.76957
1.75561
1.74019
1.72357
1.70587
1.6903
1.67914
1.67175
1.66285
1.65153
1.64091
1.62433
1.49669
1.41544
1.31136
1.23778
1.19527
1.13305
1.07175
1.0743
1.07504
1.06017
1.05407
1.05286
1.05533
1.05915
1.0658
1.08012
1.08635
1.08713
1.08695
1.08664
1.08671
1.09187
1.12621
1.28321
1.47328
1.55808
1.63086
1.72183
1.86756
1.98124
2.04529
2.03616
2.00717
1.98021
1.95824
1.9399
1.92379
1.90648
1.88656
1.86226
1.83467
1.80812
1.78791
1.77256
1.75785
1.74371
1.72922
1.71356
1.69593
1.67592
1.65453
1.63465
1.61954
1.60792
1.59681
1.58542
1.57341
1.56005
1.54535
1.53075
1.51665
1.50356
1.49097
1.47774
1.46408
1.45108
1.4405
1.43259
1.42624
1.41907
1.41051
1.3985
1.39381
1.40512
1.4381
1.48185
1.52989
1.55873
1.59035
1.6267
1.65533
1.67889
1.69214
1.70332
1.71062
1.71736
1.7224
1.71928
1.71064
1.69765
1.68473
1.67542
1.66626
1.65582
1.6464
1.63011
1.53362
1.49391
1.42947
1.34668
1.28549
1.23236
1.16648
1.11645
1.09187
1.07002
1.04679
1.03965
1.04028
1.04119
1.04333
1.05003
1.05697
1.05898
1.05997
1.06289
1.06907
1.10867
1.29802
1.48066
1.5692
1.58711
1.58922
1.59325
1.63441
1.77373
1.94175
2.01799
2.02496
2.00441
1.96637
1.93667
1.91661
1.89711
1.87482
1.8502
1.82671
1.80761
1.78893
1.76792
1.7488
1.73302
1.71837
1.70337
1.68773
1.67045
1.65039
1.6292
1.61058
1.5974
1.58712
1.57661
1.56526
1.55251
1.53783
1.5228
1.5083
1.49448
1.48105
1.46823
1.45607
1.4446
1.43251
1.42418
1.42013
1.41743
1.41649
1.42837
1.4581
1.5022
1.54065
1.56968
1.58488
1.57981
1.57199
1.5718
1.57676
1.59153
1.61286
1.64052
1.6721
1.69802
1.71135
1.71058
1.70691
1.69802
1.68933
1.68283
1.67169
1.66077
1.65268
1.63661
1.55159
1.53471
1.49854
1.4387
1.36787
1.32082
1.27331
1.20119
1.1553
1.13614
1.1099
1.08366
1.06879
1.05711
1.04905
1.04573
1.04178
1.04148
1.04396
1.05041
1.10347
1.29995
1.50639
1.55944
1.57838
1.58424
1.57348
1.55923
1.54856
1.56544
1.66431
1.84565
1.97079
1.97778
1.97116
1.94851
1.92333
1.8956
1.86899
1.84886
1.83173
1.81512
1.79528
1.77159
1.74908
1.72984
1.7149
1.70145
1.68787
1.67243
1.6536
1.63319
1.61285
1.59552
1.58493
1.57628
1.56581
1.55297
1.53799
1.52208
1.50658
1.49268
1.47878
1.4662
1.45476
1.4455
1.43488
1.42788
1.42618
1.4368
1.46933
1.51993
1.5638
1.59892
1.61276
1.61149
1.60393
1.58868
1.5728
1.56042
1.55455
1.55337
1.55724
1.56795
1.58951
1.62222
1.64971
1.66466
1.67411
1.6749
1.67317
1.67078
1.67056
1.66883
1.66382
1.64873
1.56429
1.55827
1.53971
1.50388
1.44858
1.38681
1.34525
1.30097
1.23368
1.17997
1.16098
1.14209
1.12343
1.096
1.06257
1.04547
1.04251
1.04338
1.05253
1.13819
1.32629
1.53326
1.57959
1.57267
1.56871
1.56167
1.54638
1.53355
1.52584
1.51322
1.51629
1.56983
1.73319
1.88332
1.95371
1.95365
1.93489
1.90039
1.86824
1.84284
1.82255
1.80511
1.7886
1.77328
1.75475
1.73381
1.71265
1.69361
1.67723
1.6654
1.6567
1.64363
1.62514
1.60374
1.58493
1.57038
1.55895
1.54797
1.53599
1.52225
1.50589
1.49034
1.4798
1.47106
1.45874
1.45276
1.44816
1.45426
1.47519
1.52115
1.57513
1.61052
1.62105
1.62947
1.62769
1.62083
1.60969
1.59528
1.57942
1.56287
1.55066
1.54416
1.54088
1.53948
1.54062
1.54842
1.56728
1.58891
1.61098
1.63567
1.6489
1.65603
1.66156
1.66418
1.6646
1.65635
1.57704
1.57392
1.56696
1.54632
1.51082
1.46153
1.40135
1.36264
1.32368
1.27097
1.20545
1.18962
1.18441
1.16632
1.12381
1.07842
1.07446
1.09067
1.18765
1.39026
1.54844
1.60382
1.59615
1.576
1.55882
1.5429
1.52727
1.51606
1.50562
1.49088
1.47695
1.46493
1.48854
1.60397
1.77731
1.8988
1.90137
1.89462
1.87243
1.84653
1.82271
1.80278
1.78552
1.76911
1.75244
1.73305
1.71036
1.6902
1.67537
1.66248
1.64874
1.635
1.62126
1.60545
1.5856
1.56631
1.55372
1.54544
1.5385
1.52739
1.51086
1.49009
1.47239
1.46574
1.46419
1.46885
1.49212
1.53951
1.59106
1.6294
1.64732
1.64971
1.65252
1.65026
1.64298
1.63356
1.6219
1.6073
1.58894
1.56815
1.55152
1.54255
1.53733
1.53329
1.52922
1.5267
1.52575
1.52745
1.53484
1.54773
1.57142
1.59749
1.6139
1.62762
1.64356
1.64434
1.58283
1.58207
1.57982
1.57335
1.5513
1.51743
1.47321
1.41525
1.37606
1.3442
1.30128
1.24571
1.2137
1.20471
1.18558
1.14962
1.16215
1.28272
1.48994
1.61128
1.64213
1.62888
1.6022
1.57785
1.55768
1.5382
1.52145
1.50728
1.49085
1.4738
1.45626
1.44508
1.42851
1.43099
1.49232
1.65704
1.79505
1.8617
1.86058
1.84756
1.82244
1.79781
1.77902
1.76399
1.74942
1.73091
1.70765
1.68556
1.66978
1.65641
1.64404
1.63264
1.62114
1.60668
1.58776
1.5687
1.55397
1.54129
1.52923
1.51715
1.50328
1.49049
1.47571
1.47541
1.49407
1.54157
1.61244
1.6565
1.67442
1.67533
1.66892
1.66319
1.65761
1.64843
1.63911
1.62845
1.61718
1.60459
1.59021
1.57174
1.55333
1.54403
1.53845
1.53337
1.52754
1.52268
1.51822
1.51412
1.50472
1.49214
1.49333
1.50667
1.53561
1.5654
1.59538
1.62462
1.5808
1.58093
1.57995
1.57872
1.57257
1.5513
1.52031
1.48078
1.42924
1.38708
1.36111
1.32552
1.2765
1.24346
1.22808
1.25993
1.40678
1.60087
1.69972
1.69598
1.67448
1.64503
1.61485
1.5891
1.56479
1.54242
1.52151
1.50416
1.48521
1.46563
1.44452
1.43052
1.41492
1.40095
1.38896
1.41166
1.52184
1.67985
1.7876
1.81022
1.80535
1.79077
1.77447
1.75813
1.74138
1.72277
1.70139
1.67808
1.66197
1.65124
1.64071
1.62914
1.61617
1.60135
1.58496
1.56666
1.54947
1.53516
1.52459
1.51493
1.50847
1.49867
1.50537
1.54354
1.60979
1.66752
1.70869
1.71425
1.70821
1.69742
1.68294
1.66905
1.65645
1.6454
1.63478
1.62372
1.6138
1.60335
1.59134
1.57693
1.55879
1.54592
1.539
1.53251
1.52583
1.51961
1.51416
1.50889
1.49979
1.48417
1.46546
1.46166
1.46669
1.48412
1.50852
1.55901
1.58165
1.57974
1.57944
1.57889
1.57866
1.57139
1.55017
1.51947
1.48457
1.44106
1.40149
1.3709
1.33523
1.31755
1.37321
1.54544
1.71701
1.76758
1.75597
1.7255
1.69283
1.66293
1.6342
1.60566
1.57663
1.54979
1.52668
1.50693
1.48626
1.46306
1.44166
1.42414
1.40676
1.38696
1.37224
1.35746
1.36045
1.41339
1.55603
1.69672
1.75941
1.77458
1.76736
1.74992
1.73044
1.71134
1.69268
1.67117
1.6519
1.64231
1.6329
1.62126
1.60844
1.59545
1.58056
1.56251
1.54598
1.53296
1.52639
1.52145
1.52685
1.55329
1.61028
1.67846
1.72546
1.73389
1.73145
1.72351
1.70789
1.69327
1.681
1.66904
1.65713
1.6454
1.63213
1.61879
1.60881
1.60175
1.59439
1.5814
1.56269
1.5477
1.53919
1.53181
1.5239
1.51616
1.50951
1.50344
1.49589
1.48179
1.46297
1.45247
1.4473
1.44617
1.44948
1.47673
1.58242
1.57969
1.57965
1.58097
1.58249
1.57977
1.56863
1.54747
1.52064
1.48578
1.45088
1.40822
1.41698
1.51661
1.69649
1.83236
1.84463
1.82299
1.78528
1.74815
1.71381
1.6817
1.65105
1.62085
1.59083
1.56177
1.53469
1.50882
1.48413
1.45949
1.44034
1.42222
1.40404
1.38426
1.36818
1.34939
1.33303
1.32361
1.34419
1.44523
1.59086
1.69287
1.72456
1.72456
1.71432
1.69937
1.68436
1.66482
1.64096
1.62617
1.61844
1.60953
1.59903
1.5883
1.5755
1.56005
1.54695
1.53459
1.53454
1.55477
1.61371
1.68026
1.7331
1.76387
1.76347
1.75849
1.74225
1.71772
1.69697
1.68374
1.67401
1.66477
1.65535
1.64387
1.62973
1.61574
1.60429
1.59513
1.58564
1.57468
1.56199
1.54962
1.53904
1.52973
1.52064
1.51279
1.50594
1.49874
1.48965
1.47645
1.45964
1.44853
1.44218
1.43713
1.43417
1.43219
1.5579
1.56303
1.56882
1.57458
1.57927
1.57823
1.57268
1.56276
1.54326
1.51905
1.49092
1.5265
1.68449
1.85385
1.91545
1.90752
1.87447
1.83521
1.79874
1.76462
1.73059
1.69628
1.66284
1.6306
1.60011
1.57129
1.54409
1.51697
1.48951
1.46174
1.43873
1.41906
1.40023
1.38281
1.36693
1.34948
1.32838
1.31358
1.29929
1.30253
1.35509
1.48169
1.60899
1.67392
1.69094
1.68807
1.67586
1.65596
1.63025
1.60835
1.59828
1.59361
1.58713
1.57951
1.56959
1.56019
1.54883
1.55796
1.59844
1.67798
1.73868
1.76302
1.76728
1.76682
1.75959
1.74988
1.73557
1.71342
1.69046
1.67644
1.66694
1.65854
1.65001
1.63953
1.62673
1.61231
1.59842
1.58801
1.57868
1.56732
1.55673
1.54754
1.53801
1.52774
1.5175
1.50845
1.50013
1.49182
1.48307
1.47247
1.45742
1.44547
1.43907
1.4333
1.42847
1.42134
1.52543
1.56189
1.57622
1.57552
1.57465
1.57499
1.57444
1.57143
1.55784
1.56098
1.65469
1.83822
1.98301
2.00992
1.98882
1.93815
1.88805
1.84521
1.80778
1.77283
1.73868
1.70486
1.67192
1.63997
1.60925
1.57952
1.5506
1.52186
1.49355
1.46692
1.44324
1.42082
1.39881
1.37978
1.36165
1.34438
1.32674
1.31042
1.29295
1.28079
1.27423
1.29421
1.38159
1.51602
1.60774
1.64724
1.65386
1.64484
1.6239
1.60024
1.58459
1.57302
1.56432
1.56275
1.56338
1.57584
1.61267
1.67732
1.74543
1.7898
1.7952
1.79158
1.77973
1.76378
1.74835
1.7365
1.72403
1.70542
1.68508
1.67085
1.66017
1.65074
1.64167
1.63245
1.62261
1.61108
1.59704
1.58241
1.5683
1.55612
1.54861
1.5422
1.53442
1.52536
1.51545
1.50567
1.49659
1.48782
1.47818
1.46715
1.45468
1.44145
1.43456
1.4303
1.42584
1.41625
1.38926
1.51032
1.55263
1.56018
1.56713
1.57256
1.57613
1.57959
1.61489
1.77761
1.99069
2.05134
2.04583
2.02473
1.9893
1.94668
1.90094
1.85633
1.81511
1.77768
1.74332
1.71037
1.67786
1.64557
1.61403
1.58358
1.55403
1.52476
1.49609
1.46985
1.44586
1.42238
1.40106
1.38374
1.36623
1.34659
1.32629
1.30589
1.28614
1.26982
1.26198
1.254
1.25708
1.30383
1.42229
1.53335
1.60463
1.6198
1.61671
1.59777
1.57434
1.5581
1.55568
1.56098
1.59549
1.67197
1.74685
1.80169
1.81088
1.80241
1.78682
1.77794
1.77107
1.75935
1.74474
1.73059
1.71655
1.69757
1.67736
1.66398
1.65382
1.64373
1.63419
1.62618
1.61875
1.60876
1.59525
1.57811
1.56141
1.55019
1.54377
1.53749
1.53011
1.521
1.51167
1.50278
1.4933
1.48434
1.47665
1.46834
1.45661
1.44442
1.43453
1.42722
1.4223
1.41337
1.13874
1.3308
1.47451
1.54441
1.55798
1.56621
1.59245
1.68104
1.87117
2.06056
2.13594
2.12316
2.07454
2.0228
1.98579
1.95149
1.91239
1.86856
1.82388
1.78238
1.74554
1.71233
1.68111
1.65048
1.61996
1.58984
1.56026
1.53055
1.50053
1.47277
1.44876
1.42581
1.40387
1.38559
1.36906
1.34998
1.33004
1.31083
1.28956
1.26945
1.25609
1.24482
1.23885
1.23695
1.25871
1.33683
1.45858
1.54286
1.58219
1.57909
1.5673
1.5698
1.59743
1.64895
1.72823
1.79216
1.83903
1.84407
1.83645
1.81064
1.78107
1.76257
1.75673
1.74917
1.73882
1.72595
1.71059
1.69273
1.675
1.66174
1.65162
1.64163
1.63142
1.62197
1.61388
1.60583
1.59281
1.5751
1.55925
1.55021
1.54309
1.53568
1.52913
1.52299
1.5146
1.50352
1.49232
1.48293
1.47445
1.46293
1.44962
1.43965
1.43278
1.42729
1.42266
1.41343
1.01071
1.07936
1.26187
1.45927
1.527
1.63656
1.79169
1.95503
2.07248
2.11883
2.11822
2.10699
2.07893
2.03624
1.99475
1.95563
1.9157
1.87453
1.83258
1.79128
1.75234
1.71643
1.68337
1.65243
1.62259
1.59315
1.56385
1.53463
1.50547
1.4764
1.44944
1.42867
1.41186
1.39386
1.37463
1.35885
1.34679
1.32969
1.30749
1.27807
1.25089
1.24162
1.2367
1.23328
1.22396
1.22815
1.27409
1.37583
1.49314
1.542
1.57268
1.66306
1.75384
1.80914
1.83583
1.8364
1.83975
1.8366
1.82452
1.80599
1.78384
1.76358
1.75025
1.74242
1.73564
1.72669
1.71328
1.69539
1.67736
1.66255
1.65139
1.64296
1.63526
1.62579
1.61288
1.59574
1.57989
1.57006
1.56417
1.55855
1.55081
1.54199
1.53272
1.52194
1.509
1.49752
1.49155
1.4867
1.47859
1.46373
1.44971
1.44362
1.43906
1.43423
1.42961
1.41946
1.00017
1.00395
1.05234
1.251
1.55936
1.81471
1.98861
2.10978
2.17448
2.15115
2.10934
2.09144
2.07485
2.04539
2.00314
1.95827
1.91565
1.87512
1.83403
1.79209
1.75184
1.71505
1.68189
1.65171
1.62365
1.59664
1.56929
1.53985
1.50883
1.47909
1.45278
1.4293
1.40796
1.38977
1.37417
1.35829
1.33889
1.31652
1.29543
1.27379
1.2542
1.24416
1.23392
1.22277
1.20992
1.19794
1.19884
1.22697
1.33194
1.51361
1.64604
1.77808
1.86742
1.89464
1.88926
1.8726
1.84504
1.82582
1.80871
1.79701
1.78324
1.77028
1.75728
1.74168
1.72608
1.71254
1.70041
1.68859
1.67613
1.6641
1.65299
1.64286
1.63266
1.62065
1.60572
1.59002
1.57621
1.56857
1.56342
1.55634
1.54745
1.53721
1.52749
1.51719
1.50612
1.4979
1.491
1.48326
1.47283
1.45618
1.44378
1.439
1.43473
1.43005
1.42564
1.41599
1.00017
1.00396
1.05234
1.25177
1.56325
1.80961
1.98772
2.11059
2.17481
2.15203
2.11074
2.09246
2.07592
2.04622
2.00358
1.95796
1.91461
1.87353
1.83245
1.79113
1.7518
1.71601
1.68357
1.65364
1.62518
1.59679
1.56768
1.53695
1.50549
1.47592
1.45056
1.42894
1.41106
1.39637
1.38131
1.36236
1.34079
1.31689
1.2915
1.2794
1.26956
1.25445
1.23769
1.2237
1.21057
1.19927
1.20051
1.22705
1.3276
1.49093
1.67909
1.78286
1.84483
1.89527
1.89244
1.86635
1.84543
1.82637
1.8072
1.79811
1.78822
1.77428
1.75475
1.73712
1.72351
1.70993
1.69604
1.68764
1.68169
1.6723
1.6603
1.64815
1.63591
1.62181
1.60472
1.58862
1.57913
1.57297
1.56641
1.55821
1.54912
1.53886
1.52675
1.51608
1.50666
1.49883
1.49177
1.48413
1.47291
1.45542
1.44398
1.43925
1.43471
1.42988
1.42555
1.41622
1.01068
1.07946
1.26138
1.46029
1.52925
1.63196
1.79087
1.95567
2.07332
2.11913
2.11873
2.10759
2.07947
2.03655
1.99484
1.95557
1.91574
1.87442
1.83217
1.79064
1.75151
1.71534
1.682
1.65119
1.6227
1.59605
1.56964
1.54124
1.51038
1.47953
1.45171
1.42847
1.40795
1.3876
1.3713
1.36213
1.35079
1.33129
1.30763
1.28381
1.25884
1.23806
1.23201
1.22861
1.22255
1.22935
1.27103
1.37902
1.48579
1.52637
1.5972
1.66511
1.72979
1.8084
1.83041
1.83435
1.83898
1.8371
1.8274
1.8134
1.7907
1.77118
1.75209
1.7372
1.72595
1.71532
1.7035
1.69109
1.67738
1.66483
1.65305
1.64202
1.63177
1.62093
1.60803
1.59442
1.57888
1.56615
1.56205
1.55891
1.55311
1.54314
1.52772
1.51497
1.50904
1.50371
1.49727
1.4891
1.47654
1.4603
1.44992
1.44411
1.439
1.43397
1.42973
1.4208
1.13861
1.33115
1.47402
1.5446
1.55793
1.56586
1.59253
1.68187
1.87199
2.06034
2.13626
2.12333
2.0744
2.02258
1.98549
1.95106
1.91178
1.86783
1.82343
1.78234
1.7457
1.71263
1.68175
1.65135
1.62086
1.59039
1.55966
1.52917
1.49941
1.47166
1.4464
1.42461
1.40769
1.39247
1.37445
1.35163
1.32984
1.31084
1.2942
1.27602
1.25517
1.23846
1.23627
1.23675
1.25825
1.3422
1.45282
1.54889
1.58303
1.57895
1.56653
1.56647
1.58637
1.64797
1.73743
1.80094
1.83766
1.84576
1.8404
1.81661
1.78659
1.76376
1.75443
1.74584
1.73484
1.72132
1.70875
1.6966
1.68144
1.6662
1.65321
1.64208
1.63234
1.62273
1.61186
1.59955
1.58505
1.57244
1.56172
1.55277
1.54498
1.53777
1.53003
1.52052
1.51
1.49993
1.49196
1.48473
1.47559
1.46303
1.44902
1.43965
1.43369
1.42805
1.42319
1.41383
1.38915
1.51067
1.55246
1.56007
1.56718
1.57252
1.57613
1.57967
1.615
1.77695
1.99021
2.0514
2.0456
2.02468
1.98906
1.94639
1.90065
1.8562
1.81531
1.77815
1.74384
1.71083
1.67822
1.64566
1.61386
1.58304
1.55316
1.52421
1.49602
1.46964
1.44605
1.42407
1.40249
1.38361
1.36596
1.34707
1.3274
1.30715
1.28966
1.27376
1.26274
1.2532
1.25805
1.3025
1.42383
1.5333
1.60128
1.61893
1.61655
1.60146
1.57382
1.55558
1.55476
1.56066
1.60239
1.67995
1.74777
1.80049
1.8134
1.80241
1.7865
1.77454
1.76718
1.75896
1.74585
1.73253
1.72117
1.70569
1.68304
1.66398
1.65191
1.64167
1.63342
1.62749
1.6213
1.61248
1.6002
1.58221
1.56372
1.55262
1.54514
1.53659
1.52693
1.51829
1.50984
1.50114
1.49286
1.4859
1.47948
1.46975
1.45554
1.44313
1.43535
1.42919
1.4236
1.4132
1.52544
1.562
1.57623
1.57547
1.57463
1.57499
1.57445
1.57145
1.55783
1.5609
1.6543
1.83793
1.98298
2.00971
1.98859
1.93798
1.88802
1.84536
1.80812
1.77329
1.73913
1.70517
1.67197
1.63982
1.60905
1.5793
1.55049
1.52187
1.49333
1.46653
1.44348
1.42123
1.39839
1.37927
1.36189
1.34521
1.32762
1.31135
1.29378
1.28187
1.27618
1.29614
1.38242
1.51029
1.61143
1.64804
1.65432
1.64657
1.6235
1.59993
1.58323
1.5701
1.56237
1.56256
1.56453
1.57852
1.61207
1.67355
1.74399
1.78077
1.79115
1.78837
1.77882
1.76515
1.75004
1.73834
1.72781
1.71004
1.68518
1.66692
1.65591
1.64694
1.63819
1.62903
1.62011
1.61208
1.60236
1.58778
1.57065
1.55739
1.54782
1.53939
1.53073
1.5216
1.51262
1.50452
1.49656
1.48755
1.47681
1.4652
1.45231
1.44112
1.43415
1.42934
1.42476
1.41584
1.55791
1.56303
1.56883
1.57458
1.57927
1.57823
1.57269
1.56277
1.54327
1.51904
1.4909
1.52644
1.68462
1.85392
1.91556
1.90763
1.87459
1.83546
1.7991
1.76497
1.73082
1.69633
1.66272
1.63038
1.59983
1.57101
1.54393
1.51679
1.48927
1.4617
1.43914
1.41934
1.39994
1.38246
1.36685
1.34971
1.32893
1.31411
1.29872
1.30162
1.35328
1.48355
1.60497
1.67364
1.6927
1.69025
1.67802
1.65549
1.62776
1.60634
1.599
1.59477
1.58801
1.58021
1.57051
1.5602
1.54821
1.55621
1.59572
1.6722
1.73197
1.76468
1.76817
1.76852
1.76204
1.7528
1.73863
1.71533
1.68942
1.67263
1.6625
1.65432
1.64605
1.6367
1.62705
1.61726
1.60675
1.59483
1.58066
1.5653
1.5525
1.54288
1.53407
1.52517
1.51692
1.50942
1.50163
1.49285
1.48291
1.46925
1.45235
1.44225
1.43714
1.43285
1.42865
1.422
1.58242
1.57969
1.57965
1.58096
1.58249
1.57977
1.56863
1.54747
1.52065
1.48578
1.45088
1.40823
1.41706
1.51687
1.69679
1.83258
1.84471
1.82314
1.78549
1.74831
1.71383
1.68158
1.65084
1.62057
1.59056
1.56159
1.5346
1.50867
1.48415
1.45993
1.44072
1.42218
1.40386
1.38416
1.36804
1.34937
1.33325
1.32321
1.34367
1.44304
1.5904
1.69245
1.72271
1.72517
1.71456
1.69855
1.68319
1.6634
1.63984
1.62671
1.61855
1.60925
1.59924
1.58877
1.57561
1.55997
1.54627
1.53459
1.53462
1.55559
1.61079
1.68285
1.73394
1.76487
1.76559
1.76102
1.74536
1.71916
1.69527
1.67984
1.67016
1.66202
1.6543
1.64512
1.63397
1.62169
1.6092
1.59741
1.58514
1.57074
1.55633
1.54547
1.5368
1.52863
1.52142
1.51516
1.50896
1.50135
1.4901
1.47211
1.45406
1.44595
1.44166
1.43829
1.43567
1.43376
1.58165
1.57974
1.57944
1.57889
1.57866
1.57139
1.55017
1.51947
1.48457
1.44106
1.40148
1.37091
1.33523
1.31759
1.3734
1.54562
1.71702
1.76757
1.75595
1.72547
1.69273
1.66278
1.63403
1.60548
1.57646
1.54971
1.52662
1.50694
1.48645
1.4633
1.44179
1.42405
1.40665
1.38682
1.37199
1.35711
1.36
1.41264
1.55575
1.69408
1.76047
1.77466
1.7667
1.74962
1.73052
1.71107
1.69165
1.66993
1.65296
1.64357
1.63329
1.62122
1.60867
1.5957
1.5804
1.56215
1.54539
1.53252
1.52636
1.52193
1.52718
1.55381
1.6134
1.67517
1.72551
1.7345
1.73163
1.72145
1.703
1.68917
1.67886
1.66899
1.65922
1.64912
1.63714
1.6239
1.61082
1.59969
1.58904
1.57446
1.55825
1.54716
1.53907
1.53154
1.52465
1.51883
1.51349
1.5066
1.49523
1.47572
1.45833
1.45147
1.44874
1.44738
1.45034
1.47721
1.5808
1.58093
1.57995
1.57872
1.57257
1.5513
1.52031
1.48078
1.42925
1.38708
1.36111
1.32552
1.2765
1.24347
1.22809
1.25993
1.40664
1.60071
1.6996
1.69586
1.67432
1.64489
1.61474
1.58898
1.56475
1.54247
1.5216
1.50429
1.4854
1.46579
1.44462
1.43052
1.4149
1.40085
1.38864
1.41139
1.52076
1.67959
1.78651
1.80872
1.80551
1.79107
1.77473
1.75847
1.74192
1.72295
1.70062
1.67762
1.66246
1.6515
1.64086
1.62934
1.61643
1.60141
1.58472
1.5663
1.54907
1.53485
1.52467
1.5151
1.50861
1.49857
1.50562
1.54039
1.60684
1.66814
1.70812
1.71123
1.70457
1.696
1.68553
1.67191
1.65976
1.64981
1.63917
1.6271
1.61431
1.60148
1.58825
1.5729
1.55826
1.54846
1.54093
1.53372
1.52624
1.52081
1.51667
1.51055
1.49901
1.48028
1.46366
1.46272
1.46793
1.48394
1.50786
1.55842
1.58283
1.58207
1.57982
1.57335
1.5513
1.51744
1.47321
1.41525
1.37606
1.3442
1.30128
1.24571
1.2137
1.20472
1.18558
1.14961
1.1621
1.28254
1.48976
1.6111
1.64204
1.62879
1.60215
1.57781
1.5577
1.5383
1.52156
1.50743
1.49103
1.47392
1.45634
1.4451
1.42843
1.43085
1.49219
1.65727
1.79418
1.86191
1.86099
1.84831
1.8233
1.79883
1.77987
1.76466
1.74986
1.73069
1.70703
1.68548
1.6697
1.65611
1.64383
1.63278
1.62169
1.60725
1.58797
1.56886
1.55416
1.54129
1.52932
1.51736
1.50338
1.49023
1.47573
1.47534
1.49381
1.54276
1.61434
1.65484
1.67357
1.67478
1.66838
1.6645
1.65972
1.65112
1.64067
1.62919
1.61585
1.60111
1.58645
1.5711
1.55744
1.54871
1.54209
1.53581
1.52874
1.52312
1.51892
1.51407
1.50283
1.49341
1.4963
1.51033
1.53777
1.56572
1.59498
1.62273
1.57704
1.57392
1.56696
1.54632
1.51082
1.46153
1.40135
1.36264
1.32368
1.27096
1.20545
1.18962
1.18441
1.16633
1.12381
1.07841
1.07446
1.09065
1.18757
1.39013
1.5484
1.60377
1.59615
1.57604
1.55888
1.54303
1.5274
1.51616
1.50568
1.49092
1.47694
1.46487
1.48842
1.60351
1.77738
1.89904
1.90168
1.8949
1.87253
1.84669
1.823
1.80335
1.78578
1.76909
1.75233
1.7327
1.71004
1.6903
1.67552
1.66242
1.64869
1.63533
1.62166
1.60548
1.58525
1.56619
1.55452
1.54719
1.53992
1.52785
1.51078
1.4898
1.47242
1.46582
1.46449
1.46972
1.49387
1.54199
1.59334
1.63271
1.64572
1.65051
1.65245
1.64888
1.63999
1.62867
1.61622
1.60194
1.58627
1.56968
1.55557
1.54767
1.54188
1.53722
1.53199
1.52682
1.52352
1.52602
1.53405
1.55052
1.57529
1.60248
1.61866
1.63101
1.64365
1.6425
1.56429
1.55827
1.53971
1.50388
1.44858
1.38681
1.34525
1.30097
1.23368
1.17997
1.16098
1.14209
1.12343
1.096
1.06257
1.04546
1.04251
1.04339
1.05253
1.13818
1.32633
1.53336
1.57956
1.57272
1.56878
1.56177
1.54649
1.53361
1.52585
1.5132
1.51624
1.56974
1.73281
1.88303
1.95386
1.95387
1.93501
1.90026
1.86813
1.84273
1.82243
1.80487
1.78843
1.77308
1.75465
1.73374
1.71261
1.69371
1.67758
1.66626
1.6575
1.64391
1.62508
1.60345
1.58455
1.57036
1.55941
1.54858
1.53633
1.52226
1.50565
1.49051
1.48
1.47103
1.45884
1.45316
1.44889
1.45578
1.47663
1.52428
1.57435
1.61399
1.62455
1.62883
1.62725
1.62126
1.60931
1.59361
1.57769
1.56263
1.55138
1.54563
1.5431
1.54116
1.54168
1.54811
1.56331
1.58503
1.61006
1.63381
1.64987
1.66148
1.66736
1.66648
1.66427
1.65423
1.55159
1.53471
1.49854
1.4387
1.36787
1.32082
1.27331
1.20119
1.1553
1.13614
1.1099
1.08366
1.06879
1.05711
1.04905
1.04573
1.04178
1.04148
1.04396
1.05041
1.1035
1.30013
1.50647
1.55947
1.57844
1.58429
1.57351
1.55923
1.54852
1.56536
1.66418
1.84559
1.97023
1.97793
1.97135
1.94864
1.92339
1.89574
1.86913
1.84877
1.83146
1.81462
1.79457
1.77126
1.74916
1.73023
1.71515
1.7014
1.6877
1.67213
1.65323
1.63296
1.61262
1.59539
1.58512
1.57653
1.56585
1.55268
1.53759
1.52174
1.50649
1.49253
1.47848
1.46596
1.4547
1.44553
1.43495
1.42791
1.4262
1.43738
1.47039
1.51983
1.56346
1.59227
1.60873
1.61068
1.60703
1.5938
1.57559
1.56328
1.55564
1.55173
1.55457
1.56605
1.5912
1.62117
1.64596
1.66275
1.67409
1.67473
1.6739
1.67324
1.67222
1.66754
1.66142
1.6462
1.53362
1.49391
1.42947
1.34668
1.28549
1.23236
1.16648
1.11645
1.09187
1.07002
1.04679
1.03965
1.04027
1.04119
1.04333
1.05003
1.05697
1.05898
1.05997
1.06289
1.06907
1.10871
1.29811
1.48063
1.56923
1.58718
1.58921
1.59322
1.63438
1.77357
1.94173
2.01795
2.02488
2.00444
1.96649
1.9368
1.91678
1.89736
1.87496
1.8501
1.82644
1.80732
1.78875
1.768
1.74916
1.73325
1.71841
1.70336
1.68768
1.67027
1.65016
1.62905
1.61048
1.5974
1.58716
1.57664
1.56517
1.55228
1.53756
1.52261
1.50813
1.4942
1.48074
1.46794
1.45586
1.44449
1.43242
1.4241
1.42021
1.41765
1.41687
1.42697
1.45886
1.50104
1.53854
1.56496
1.58373
1.58064
1.57763
1.57607
1.58021
1.59224
1.61153
1.64148
1.67582
1.69729
1.71033
1.71033
1.7073
1.69892
1.68906
1.68094
1.67036
1.65985
1.65165
1.63619
1.49669
1.41544
1.31136
1.23779
1.19527
1.13305
1.07175
1.0743
1.07504
1.06017
1.05407
1.05286
1.05533
1.05915
1.0658
1.08012
1.08635
1.08713
1.08695
1.08664
1.08671
1.09187
1.12621
1.28313
1.47319
1.55808
1.63085
1.72182
1.86752
1.9811
2.0453
2.03614
2.00719
1.98027
1.95833
1.93995
1.92383
1.90651
1.8866
1.86225
1.83463
1.80818
1.78811
1.77272
1.75789
1.74372
1.72931
1.71368
1.69595
1.67588
1.6545
1.63466
1.61957
1.60795
1.59681
1.58543
1.57339
1.55997
1.54527
1.53065
1.51651
1.50342
1.49079
1.47748
1.46377
1.45075
1.44019
1.43234
1.42615
1.41909
1.41036
1.39831
1.39461
1.40498
1.44014
1.4836
1.53179
1.55808
1.58853
1.62348
1.6521
1.67429
1.68945
1.7063
1.71223
1.71717
1.72293
1.72034
1.71172
1.69804
1.6839
1.67299
1.66401
1.65392
1.64543
1.63154
1.39859
1.23108
1.09675
1.03432
1.00113
0.972079
0.970772
1.0015
1.05339
1.07189
1.0749
1.08281
1.09085
1.09454
1.10469
1.11663
1.11636
1.11586
1.11258
1.10921
1.10843
1.1081
1.11217
1.13865
1.25874
1.5199
1.76421
1.97397
2.13584
2.18823
2.14478
2.06062
1.9974
1.96665
1.95018
1.93459
1.91718
1.89935
1.88008
1.85718
1.83034
1.80305
1.77999
1.76229
1.74773
1.73406
1.72003
1.70468
1.68665
1.66539
1.64301
1.62411
1.61047