/*--------------------------------*- C++ -*----------------------------------*\
  =========                 |
  \\      /  F ield         | OpenFOAM: The Open Source CFD Toolbox
   \\    /   O peration     | Website:  https://openfoam.org
    \\  /    A nd           | Version:  7
     \\/     M anipulation  |
\*---------------------------------------------------------------------------*/
FoamFile
{
    version     2.0;
    format      ascii;
    class       volVectorField;
    location    "1.6";
    object      U;
}
// * * * * * * * * * * * * * * * * * * * * * * * * * * * * * * * * * * * * * //

dimensions      [0 1 -1 0 0 0 0];

internalField   nonuniform List<vector> 
4608
(
(3 1.98051e-17 0)
(3 3.9671e-17 0)
(3 2.43006e-18 0)
(3 1.32056e-16 0)
(3 2.41037e-16 0)
(3 -1.84156e-16 0)
(3 -7.04756e-16 0)
(3 -1.13599e-15 0)
(3 -6.67548e-16 0)
(3 -2.55484e-16 0)
(3 5.93231e-17 0)
(3 1.11375e-15 0)
(3 1.87721e-15 0)
(3 2.03251e-15 0)
(3 1.86243e-15 0)
(3 6.07431e-16 0)
(3 -2.31357e-16 0)
(3 -3.66621e-16 0)
(3 -7.00371e-17 0)
(3 5.33737e-16 0)
(3 5.30776e-16 0)
(3 5.49231e-16 0)
(3 1.03651e-15 0)
(3 1.20072e-15 0)
(3 4.12948e-17 0)
(3 3.13628e-18 0)
(3 -2.41859e-16 0)
(3 2.72158e-16 0)
(3 4.49216e-16 0)
(3 -2.02119e-16 0)
(3 -9.21127e-16 0)
(3 -1.34909e-15 0)
(3 -1.5145e-15 0)
(3 1.61191e-16 0)
(3 2.09602e-15 0)
(3 2.27812e-15 0)
(3 2.57854e-15 0)
(3 2.83532e-15 0)
(3 1.90331e-15 0)
(3 1.34629e-16 0)
(3 -5.46736e-16 0)
(3 -2.27159e-16 0)
(3 9.98189e-16 0)
(3 2.41036e-15 0)
(3 2.97971e-15 0)
(3 3.38941e-15 0)
(3 3.21315e-15 0)
(3 1.69518e-15 0)
(3 9.84317e-18 0)
(3 -8.09876e-20 0)
(3 -6.22132e-16 0)
(3 -5.56288e-16 0)
(3 -4.71059e-16 0)
(3 -4.53602e-16 0)
(3 -1.21716e-15 0)
(3 -1.84465e-15 0)
(3 -2.21898e-15 0)
(3 -1.73009e-15 0)
(3 -1.37565e-15 0)
(3 -1.72557e-15 0)
(3 -1.86297e-15 0)
(3 -1.83318e-15 0)
(3 -2.21858e-15 0)
(3 -1.9729e-15 0)
(3 -1.32568e-15 0)
(3 5.37018e-17 0)
(3 1.16794e-15 0)
(3 8.82076e-16 0)
(3 1.08147e-15 0)
(3 1.05131e-15 0)
(3 1.15056e-15 0)
(3 6.98667e-16 0)
(3 8.04212e-17 0)
(3 8.09998e-17 0)
(3 -4.87776e-16 0)
(3 -6.14026e-16 0)
(3 -2.55799e-16 0)
(3 -5.4731e-16 0)
(3 -9.24297e-16 0)
(3 -1.66019e-15 0)
(3 -2.06016e-15 0)
(3 -2.38938e-15 0)
(3 -2.43597e-15 0)
(3 -2.55915e-15 0)
(3 -3.06526e-15 0)
(3 -3.47343e-15 0)
(3 -3.28138e-15 0)
(3 -2.72958e-15 0)
(3 -2.38199e-15 0)
(3 -1.79621e-15 0)
(3 -9.57799e-16 0)
(3 -5.94127e-16 0)
(3 -9.46683e-16 0)
(3 -1.68811e-15 0)
(3 -1.64419e-15 0)
(3 -1.15591e-15 0)
(3 3.58707e-16 0)
(3 8.34809e-17 0)
(3 1.59259e-16 0)
(3 1.53205e-16 0)
(3 -1.80066e-16 0)
(3 -7.13146e-16 0)
(3 -8.39364e-16 0)
(3 -8.60812e-16 0)
(3 -5.20717e-16 0)
(3 -6.98278e-16 0)
(3 -9.7956e-16 0)
(3 -1.06028e-15 0)
(3 -1.30002e-15 0)
(3 -1.33265e-15 0)
(3 -8.35836e-16 0)
(3 -7.61539e-16 0)
(3 -4.726e-16 0)
(3 -1.96084e-16 0)
(3 4.43883e-16 0)
(3 8.693e-16 0)
(3 4.63913e-16 0)
(3 -5.03151e-18 0)
(3 -8.01996e-16 0)
(3 -7.21397e-16 0)
(3 -1.32473e-16 0)
(3 -8.26946e-17 0)
(3 -1.91407e-16 0)
(3 -2.89984e-17 0)
(3 -1.11122e-16 0)
(3 -3.45327e-16 0)
(3 -7.9683e-16 0)
(3 -1.04335e-15 0)
(3 -1.09383e-15 0)
(3 -7.35742e-16 0)
(3 -6.40387e-16 0)
(3 -6.80889e-16 0)
(3 -8.13539e-16 0)
(3 -5.65983e-16 0)
(3 3.65715e-16 0)
(3 1.35997e-15 0)
(3 1.68197e-15 0)
(3 1.62024e-15 0)
(3 1.26327e-15 0)
(3 6.05805e-16 0)
(3 5.07297e-17 0)
(3 3.79197e-17 0)
(3 2.89941e-17 0)
(3 -1.9344e-16 0)
(3 -3.21281e-17 0)
(3 2.44606e-16 0)
(3 1.06665e-16 0)
(3 1.29022e-17 0)
(3 4.96606e-16 0)
(3 5.01974e-16 0)
(3 2.92658e-16 0)
(3 2.84753e-16 0)
(3 6.86874e-16 0)
(3 1.09134e-15 0)
(3 1.51102e-15 0)
(3 1.50794e-15 0)
(3 1.21471e-15 0)
(3 1.17005e-15 0)
(3 1.44991e-15 0)
(3 9.61652e-16 0)
(3 9.6505e-16 0)
(3 7.76522e-16 0)
(3 5.58126e-16 0)
(3 -1.14899e-17 0)
(3 -9.73368e-16 0)
(3 -1.51828e-15 0)
(3 -1.91953e-15 0)
(3 -2.15446e-15 0)
(3 -4.27989e-17 0)
(3 3.47467e-16 0)
(3 7.3912e-16 0)
(3 4.88249e-16 0)
(3 3.2302e-16 0)
(3 3.41236e-16 0)
(3 5.61211e-16 0)
(3 1.05623e-15 0)
(3 1.12291e-15 0)
(3 4.2509e-16 0)
(3 3.52251e-16 0)
(3 3.08282e-16 0)
(3 7.10484e-16 0)
(3 4.50339e-16 0)
(3 -3.13459e-16 0)
(3 -8.90098e-16 0)
(3 -7.75746e-16 0)
(3 -6.04867e-16 0)
(3 -7.58788e-16 0)
(3 -7.03205e-16 0)
(3 -1.4691e-16 0)
(3 -3.48516e-16 0)
(3 -9.74445e-16 0)
(3 -1.19356e-15 0)
(3 7.26757e-17 0)
(3 3.36438e-16 0)
(3 5.10486e-16 0)
(3 6.25225e-16 0)
(3 -1.0168e-16 0)
(3 -2.62532e-16 0)
(3 1.39765e-16 0)
(3 3.97736e-16 0)
(3 4.54786e-16 0)
(3 5.28841e-16 0)
(3 3.29872e-16 0)
(3 1.6438e-16 0)
(3 2.30418e-16 0)
(3 3.10016e-16 0)
(3 1.44038e-16 0)
(3 -6.15709e-16 0)
(3 -9.2335e-16 0)
(3 -7.32203e-16 0)
(3 -4.37976e-16 0)
(3 9.58666e-17 0)
(3 2.01467e-16 0)
(3 4.82253e-16 0)
(3 1.05838e-15 0)
(3 9.98522e-16 0)
(3 1.00275e-16 0)
(3 7.20915e-17 0)
(3 1.12741e-16 0)
(3 -1.00876e-17 0)
(3 -5.42375e-16 0)
(3 -1.40869e-16 0)
(3 6.41871e-17 0)
(3 4.29841e-17 0)
(3 6.43032e-16 0)
(3 1.43037e-15 0)
(3 1.59146e-15 0)
(3 1.29151e-15 0)
(3 5.97904e-16 0)
(3 4.75245e-16 0)
(3 3.27422e-16 0)
(3 -3.77037e-16 0)
(3 -5.65856e-16 0)
(3 1.26422e-16 0)
(3 7.4637e-16 0)
(3 1.1689e-15 0)
(3 9.16721e-16 0)
(3 9.47437e-16 0)
(3 9.49522e-16 0)
(3 8.01914e-16 0)
(3 -3.49976e-16 0)
(3 -1.01153e-15 0)
(3 -8.76184e-16 0)
(3 -4.01771e-16 0)
(3 3.34818e-16 0)
(3 1.14033e-15 0)
(3 1.29057e-15 0)
(3 1.37187e-15 0)
(3 1.35798e-15 0)
(3 1.19264e-15 0)
(3 1.59493e-15 0)
(3 1.63322e-15 0)
(3 1.30713e-15 0)
(3 1.03899e-15 0)
(3 7.8966e-16 0)
(3 5.10837e-16 0)
(3 -1.20113e-16 0)
(3 -1.57839e-16 0)
(3 -4.6326e-16 0)
(3 -7.07972e-16 0)
(3 -2.02095e-16 0)
(3 4.08969e-16 0)
(3 -1.67761e-16 0)
(3 3.26089e-16 0)
(3 -1.15744e-16 0)
(3 2.55237e-17 0)
(3 2.60119e-16 0)
(3 1.98573e-16 0)
(3 3.30108e-16 0)
(3 2.09405e-16 0)
(3 2.02147e-16 0)
(3 2.04084e-16 0)
(3 9.01969e-17 0)
(3 -1.43686e-16 0)
(3 -4.60463e-16 0)
(3 1.35998e-16 0)
(3 3.20763e-16 0)
(3 -8.20079e-17 0)
(3 -2.42085e-16 0)
(3 -3.20459e-16 0)
(3 -7.46345e-17 0)
(3 -4.29603e-16 0)
(3 -1.5554e-15 0)
(3 -1.71629e-15 0)
(3 -1.4207e-15 0)
(3 -2.90048e-16 0)
(3 2.82046e-16 0)
(3 2.45233e-16 0)
(3 9.43035e-17 0)
(3 1.00036e-15 0)
(3 1.00556e-15 0)
(3 1.6961e-16 0)
(3 -3.27353e-16 0)
(3 -1.17248e-15 0)
(3 -1.18617e-15 0)
(3 -9.10015e-16 0)
(3 -6.86439e-16 0)
(3 -5.53945e-16 0)
(3 -1.10263e-15 0)
(3 -1.84551e-15 0)
(3 -2.19299e-15 0)
(3 -2.6457e-15 0)
(3 -3.19261e-15 0)
(3 -2.33032e-15 0)
(3 -1.48911e-15 0)
(3 -1.47674e-15 0)
(3 -1.38382e-15 0)
(3 -1.18457e-15 0)
(3 -4.64814e-16 0)
(3 -5.80364e-16 0)
(3 -1.68653e-16 0)
(3 -4.66819e-16 0)
(3 1.32172e-16 0)
(3 -1.66899e-16 0)
(3 -1.83315e-16 0)
(3 -1.30258e-16 0)
(3 6.72276e-17 0)
(3 -2.34525e-17 0)
(3 -3.4396e-17 0)
(3 4.49696e-16 0)
(3 7.81923e-16 0)
(3 4.9795e-16 0)
(3 -5.15069e-16 0)
(3 -7.09295e-16 0)
(3 -1.25412e-15 0)
(3 -1.2513e-15 0)
(3 -7.59837e-16 0)
(3 -9.18324e-17 0)
(3 -6.26193e-16 0)
(3 -1.10412e-15 0)
(3 -1.5035e-15 0)
(3 -1.78732e-15 0)
(3 -1.17902e-15 0)
(3 -9.60739e-16 0)
(3 -7.52882e-16 0)
(3 -7.78896e-16 0)
(3 1.70788e-17 0)
(3 -4.31343e-16 0)
(3 -2.49084e-16 0)
(3 -8.23987e-17 0)
(3 -5.01312e-16 0)
(3 2.98062e-16 0)
(3 6.84738e-16 0)
(3 1.15811e-15 0)
(3 6.86964e-16 0)
(3 -3.1196e-16 0)
(3 -2.09319e-16 0)
(3 4.99064e-16 0)
(3 5.90599e-16 0)
(3 4.60958e-16 0)
(3 7.97736e-16 0)
(3 6.74274e-16 0)
(3 4.73819e-16 0)
(3 -7.15707e-17 0)
(3 -4.27989e-16 0)
(3 -8.57113e-16 0)
(3 -1.17776e-15 0)
(3 -1.03485e-15 0)
(3 -1.64231e-15 0)
(3 -1.58982e-15 0)
(3 -2.11115e-16 0)
(3 -6.54565e-16 0)
(3 -4.82173e-16 0)
(3 -1.99675e-18 0)
(3 7.38896e-17 0)
(3 2.2056e-16 0)
(3 3.30106e-16 0)
(3 -8.57695e-17 0)
(3 -2.62282e-16 0)
(3 -5.2676e-16 0)
(3 -1.8115e-16 0)
(3 4.72769e-16 0)
(3 1.09706e-15 0)
(3 1.19222e-15 0)
(3 1.03298e-15 0)
(3 4.06887e-16 0)
(3 2.37116e-16 0)
(3 4.09028e-16 0)
(3 6.59053e-16 0)
(3 1.08393e-16 0)
(3 -6.84111e-17 0)
(3 -5.25633e-16 0)
(3 -1.66572e-15 0)
(3 -1.64586e-15 0)
(3 2.4701e-16 0)
(3 2.3929e-17 0)
(3 -8.20234e-17 0)
(3 -3.93761e-17 0)
(3 2.88597e-16 0)
(3 -3.85024e-16 0)
(3 -1.32163e-15 0)
(3 -1.64761e-15 0)
(3 -1.36738e-15 0)
(3 -6.24376e-16 0)
(3 -6.03008e-16 0)
(3 -5.20144e-16 0)
(3 -4.59249e-17 0)
(3 8.4153e-16 0)
(3 9.36801e-16 0)
(3 2.67746e-16 0)
(3 2.9682e-16 0)
(3 5.2069e-16 0)
(3 9.18123e-16 0)
(3 8.94463e-16 0)
(3 6.11513e-16 0)
(3 3.19909e-16 0)
(3 -6.22657e-16 0)
(3 -1.35316e-15 0)
(3 3.41977e-17 0)
(3 2.2177e-16 0)
(3 -1.85083e-16 0)
(3 -1.2485e-15 0)
(3 -1.65434e-15 0)
(3 -1.3575e-15 0)
(3 -6.80942e-16 0)
(3 5.56573e-17 0)
(3 -3.02077e-16 0)
(3 -9.4546e-16 0)
(3 -1.18859e-15 0)
(3 -1.11885e-15 0)
(3 -1.17768e-15 0)
(3 -8.66553e-16 0)
(3 -3.31003e-16 0)
(3 -3.19802e-16 0)
(3 -1.49895e-16 0)
(3 1.36257e-16 0)
(3 4.92873e-16 0)
(3 3.04619e-16 0)
(3 -3.58154e-16 0)
(3 -6.05646e-16 0)
(3 -1.19945e-15 0)
(3 -1.73556e-15 0)
(3 -6.4051e-17 0)
(3 -3.58216e-16 0)
(3 -6.78892e-16 0)
(3 -6.81562e-16 0)
(3 -1.60743e-16 0)
(3 1.1405e-15 0)
(3 1.36303e-15 0)
(3 1.22109e-15 0)
(3 5.02209e-16 0)
(3 -1.15857e-16 0)
(3 -4.3979e-16 0)
(3 -4.27085e-16 0)
(3 -4.02912e-16 0)
(3 -8.23467e-16 0)
(3 -1.0826e-15 0)
(3 -4.80853e-16 0)
(3 -8.78088e-16 0)
(3 -1.39022e-15 0)
(3 -1.16683e-15 0)
(3 -1.63062e-15 0)
(3 -1.93757e-15 0)
(3 -1.86967e-15 0)
(3 -2.49415e-15 0)
(3 -2.76165e-15 0)
(3 8.42897e-17 0)
(3 -2.55008e-16 0)
(3 -2.249e-16 0)
(3 6.01636e-16 0)
(3 2.01551e-15 0)
(3 2.35226e-15 0)
(3 1.38796e-15 0)
(3 1.18031e-15 0)
(3 9.46663e-16 0)
(3 5.72905e-16 0)
(3 7.87975e-18 0)
(3 -3.1742e-16 0)
(3 -3.81449e-16 0)
(3 -2.35373e-16 0)
(3 -2.3721e-16 0)
(3 7.37777e-17 0)
(3 1.43178e-16 0)
(3 -2.99249e-16 0)
(3 -5.61374e-16 0)
(3 -3.64691e-16 0)
(3 -6.57041e-16 0)
(3 -6.53282e-16 0)
(3 -1.33685e-15 0)
(3 -1.86975e-15 0)
(3 -8.33979e-17 0)
(3 4.17681e-16 0)
(3 5.66877e-16 0)
(3 4.96265e-16 0)
(3 4.07689e-16 0)
(3 3.7938e-16 0)
(3 5.85668e-16 0)
(3 6.9191e-16 0)
(3 3.34965e-16 0)
(3 -5.46577e-16 0)
(3 -1.23422e-15 0)
(3 -1.32182e-15 0)
(3 -1.3144e-15 0)
(3 -7.15881e-16 0)
(3 7.2068e-17 0)
(3 2.19719e-16 0)
(3 2.59294e-16 0)
(3 2.9827e-16 0)
(3 1.83546e-16 0)
(3 4.24775e-16 0)
(3 2.8229e-16 0)
(3 -4.2223e-16 0)
(3 -2.90344e-16 0)
(3 -2.66452e-16 0)
(3 9.28472e-17 0)
(3 2.09944e-16 0)
(3 8.78818e-17 0)
(3 1.52772e-16 0)
(3 -4.4211e-16 0)
(3 -3.99248e-16 0)
(3 1.85938e-16 0)
(3 -4.89634e-17 0)
(3 1.93903e-16 0)
(3 3.84812e-16 0)
(3 9.63977e-17 0)
(3 -8.16147e-17 0)
(3 -3.98032e-16 0)
(3 -1.1353e-16 0)
(3 -1.49294e-16 0)
(3 -3.98699e-16 0)
(3 -2.57582e-16 0)
(3 -2.97018e-17 0)
(3 -1.85129e-16 0)
(3 -6.53311e-16 0)
(3 -1.57595e-16 0)
(3 1.61282e-16 0)
(3 -2.20111e-17 0)
(3 8.44683e-17 0)
(3 2.96867e-17 0)
(3 -2.60636e-16 0)
(3 -1.32424e-16 0)
(3 2.63603e-16 0)
(3 2.90701e-16 0)
(3 -3.98114e-17 0)
(3 -3.36875e-16 0)
(3 -4.24287e-16 0)
(3 1.21083e-16 0)
(3 1.08822e-15 0)
(3 2.56359e-15 0)
(3 2.26519e-15 0)
(3 2.00042e-15 0)
(3 1.1161e-15 0)
(3 -3.77879e-16 0)
(3 -6.66558e-16 0)
(3 -3.66482e-16 0)
(3 -5.45281e-17 0)
(3 6.39516e-16 0)
(3 2.92755e-16 0)
(3 2.78653e-16 0)
(3 3.435e-16 0)
(3 7.19612e-16 0)
(3 9.5754e-16 0)
(3 1.063e-16 0)
(3 3.08877e-16 0)
(3 4.12957e-16 0)
(3 -2.81091e-16 0)
(3 -6.87176e-16 0)
(3 -8.7602e-16 0)
(3 -1.05349e-15 0)
(3 -9.01851e-16 0)
(3 -4.68821e-16 0)
(3 -6.29694e-17 0)
(3 9.71972e-16 0)
(3 2.16487e-15 0)
(3 2.74192e-15 0)
(3 2.18999e-15 0)
(3 1.95556e-15 0)
(3 7.14576e-16 0)
(3 4.59753e-16 0)
(3 7.64193e-16 0)
(3 3.37012e-16 0)
(3 2.22262e-16 0)
(3 -1.33678e-16 0)
(3 -5.58056e-16 0)
(3 -7.33896e-17 0)
(3 1.44429e-15 0)
(3 -6.3726e-17 0)
(3 6.94828e-17 0)
(3 -2.50827e-16 0)
(3 -8.36078e-16 0)
(3 -1.94154e-15 0)
(3 -2.64283e-15 0)
(3 -2.32252e-15 0)
(3 -7.38555e-16 0)
(3 -2.4797e-16 0)
(3 -9.7499e-17 0)
(3 -5.07044e-17 0)
(3 4.89544e-16 0)
(3 8.8726e-16 0)
(3 1.19438e-15 0)
(3 1.99048e-15 0)
(3 1.92187e-15 0)
(3 1.3039e-15 0)
(3 8.38574e-16 0)
(3 2.81969e-16 0)
(3 2.3763e-16 0)
(3 8.83343e-17 0)
(3 -4.44719e-16 0)
(3 -6.14137e-16 0)
(3 -6.70956e-16 0)
(3 -1.84532e-16 0)
(3 -4.64692e-17 0)
(3 1.35745e-16 0)
(3 5.33554e-16 0)
(3 6.05254e-16 0)
(3 -4.12003e-17 0)
(3 2.40631e-16 0)
(3 2.35827e-16 0)
(3 5.41464e-16 0)
(3 6.01179e-16 0)
(3 2.12834e-16 0)
(3 1.30423e-16 0)
(3 1.97705e-16 0)
(3 5.24569e-16 0)
(3 8.56628e-16 0)
(3 1.39768e-15 0)
(3 1.36196e-15 0)
(3 8.47818e-16 0)
(3 6.20772e-16 0)
(3 6.24387e-16 0)
(3 8.09881e-16 0)
(3 5.58469e-16 0)
(3 -2.36511e-16 0)
(3 -8.37835e-16 0)
(3 -1.58952e-17 0)
(3 -1.36556e-16 0)
(3 2.64656e-16 0)
(3 5.07872e-16 0)
(3 6.37264e-16 0)
(3 1.20489e-15 0)
(3 8.40235e-16 0)
(3 3.87557e-16 0)
(3 5.27294e-16 0)
(3 1.22132e-15 0)
(3 1.20913e-15 0)
(3 7.1031e-16 0)
(3 1.14638e-16 0)
(3 -1.61618e-16 0)
(3 -3.27674e-16 0)
(3 -1.02542e-16 0)
(3 2.06347e-16 0)
(3 9.20436e-17 0)
(3 -3.24383e-16 0)
(3 -4.04487e-16 0)
(3 -1.64176e-16 0)
(3 4.17299e-16 0)
(3 1.66078e-16 0)
(3 -2.90787e-16 0)
(3 6.20052e-17 0)
(3 1.91818e-16 0)
(3 1.68382e-16 0)
(3 -2.93257e-17 0)
(3 1.23671e-16 0)
(3 1.62092e-16 0)
(3 -1.71064e-16 0)
(3 -5.41767e-16 0)
(3 -2.57531e-16 0)
(3 3.89641e-16 0)
(3 1.32285e-15 0)
(3 1.28585e-15 0)
(3 1.04132e-15 0)
(3 -1.71912e-16 0)
(3 -7.13161e-16 0)
(3 -8.36244e-16 0)
(3 -8.53288e-16 0)
(3 -4.04093e-16 0)
(3 -3.70317e-16 0)
(3 -5.11197e-16 0)
(3 -5.62833e-16 0)
(3 1.239e-15 0)
(3 1.98718e-15 0)
(3 5.89392e-16 0)
(3 -8.3478e-18 0)
(3 1.87452e-17 0)
(3 1.55506e-16 0)
(3 3.8257e-16 0)
(3 3.59022e-16 0)
(3 1.29414e-16 0)
(3 -1.5768e-16 0)
(3 -3.70798e-16 0)
(3 -9.73744e-16 0)
(3 -1.48829e-15 0)
(3 -4.30844e-16 0)
(3 2.37376e-16 0)
(3 9.37433e-16 0)
(3 1.22741e-15 0)
(3 1.97783e-16 0)
(3 4.51095e-17 0)
(3 3.96265e-17 0)
(3 6.37359e-16 0)
(3 6.41865e-16 0)
(3 4.5035e-16 0)
(3 3.67081e-16 0)
(3 1.08016e-15 0)
(3 2.63712e-15 0)
(3 1.74902e-15 0)
(3 1.90651e-16 0)
(3 2.0643e-16 0)
(3 4.46026e-16 0)
(3 7.78991e-16 0)
(3 1.08512e-15 0)
(3 1.24535e-15 0)
(3 1.28557e-15 0)
(3 9.96394e-16 0)
(3 5.67085e-16 0)
(3 -2.51204e-16 0)
(3 -1.43605e-15 0)
(3 -8.45329e-16 0)
(3 -5.02748e-16 0)
(3 1.41551e-16 0)
(3 4.75871e-16 0)
(3 1.73201e-16 0)
(3 -2.55256e-16 0)
(3 -1.11636e-16 0)
(3 7.6223e-16 0)
(3 1.29174e-15 0)
(3 3.74864e-16 0)
(3 3.37159e-19 0)
(3 -2.033e-16 0)
(3 -5.90899e-16 0)
(3 1.2433e-16 0)
(3 1.83371e-16 0)
(3 1.24783e-16 0)
(3 1.28438e-17 0)
(3 5.44097e-16 0)
(3 1.64444e-15 0)
(3 2.45243e-15 0)
(3 1.8607e-15 0)
(3 1.70968e-15 0)
(3 5.44811e-16 0)
(3 -7.35873e-16 0)
(3 -1.62858e-15 0)
(3 -1.70206e-15 0)
(3 -1.52015e-15 0)
(3 -8.17449e-16 0)
(3 -3.19523e-16 0)
(3 -6.59674e-16 0)
(3 -1.07915e-15 0)
(3 -7.48145e-16 0)
(3 -9.33082e-17 0)
(3 -4.23879e-16 0)
(3 -1.06022e-15 0)
(3 -1.70654e-15 0)
(3 -8.71113e-16 0)
(3 4.59247e-17 0)
(3 -2.41779e-16 0)
(3 -6.78946e-16 0)
(3 -8.72516e-16 0)
(3 -2.28875e-16 0)
(3 4.6241e-16 0)
(3 8.49453e-16 0)
(3 7.2971e-16 0)
(3 5.86309e-16 0)
(3 2.4096e-16 0)
(3 -1.1018e-16 0)
(3 -7.31447e-16 0)
(3 -7.25008e-16 0)
(3 -7.81191e-16 0)
(3 -8.262e-16 0)
(3 -3.99535e-16 0)
(3 -1.76218e-16 0)
(3 -4.6091e-16 0)
(3 -8.57502e-16 0)
(3 -6.39594e-16 0)
(3 -4.86432e-16 0)
(3 -7.1508e-16 0)
(3 -1.0391e-15 0)
(3 -7.6751e-16 0)
(2.93302 0.0136289 0)
(2.85006 0.0533426 0)
(2.74729 0.175906 0)
(2.68653 0.217306 0)
(2.5652 0.362494 0)
(2.50617 0.442365 0)
(2.42178 0.542328 0)
(2.34977 0.626915 0)
(2.31455 0.725082 0)
(2.25917 0.797853 0)
(2.2466 0.854699 0)
(2.27989 0.883554 0)
(2.3277 0.893622 0)
(2.33953 0.887424 0)
(2.34629 0.879473 0)
(2.34711 0.870096 0)
(2.34798 0.855451 0)
(2.34845 0.849205 0)
(2.34298 0.847973 0)
(2.33806 0.847224 0)
(2.33764 0.848322 0)
(2.34112 0.849614 0)
(2.3424 0.849275 0)
(2.34107 0.849155 0)
(2.99892 0.00104679 0)
(2.99018 0.0111703 0)
(2.95789 0.052877 0)
(2.90606 0.130306 0)
(2.79829 0.27859 0)
(2.68715 0.45885 0)
(2.52954 0.68621 0)
(2.37607 0.906128 0)
(2.23803 1.05951 0)
(2.17184 1.10436 0)
(2.13465 1.04583 0)
(2.19238 1.00044 0)
(2.25696 0.940776 0)
(2.2895 0.900137 0)
(2.32932 0.861992 0)
(2.34814 0.830305 0)
(2.35528 0.828733 0)
(2.36234 0.834123 0)
(2.35613 0.839135 0)
(2.35087 0.842945 0)
(2.34673 0.843951 0)
(2.34563 0.845402 0)
(2.34602 0.845997 0)
(2.34332 0.845427 0)
(3 -3.77397e-07 0)
(3.00002 -3.69529e-05 0)
(2.99991 0.000129167 0)
(2.99993 9.75053e-05 0)
(2.99856 0.0019496 0)
(2.99163 0.0124168 0)
(2.96585 0.0524503 0)
(2.89491 0.179465 0)
(2.79329 0.391536 0)
(2.56927 0.724177 0)
(2.44941 0.853382 0)
(2.34107 0.929475 0)
(2.29683 0.9144 0)
(2.29579 0.897343 0)
(2.30653 0.889223 0)
(2.33639 0.874559 0)
(2.35562 0.862748 0)
(2.36257 0.85098 0)
(2.36216 0.842037 0)
(2.36015 0.842546 0)
(2.35573 0.844608 0)
(2.35117 0.84756 0)
(2.34924 0.848238 0)
(2.34634 0.848607 0)
(3 -2.24043e-08 0)
(3 -1.08966e-06 0)
(3 -6.86964e-07 0)
(3 -4.82526e-07 0)
(3.00001 -8.12711e-06 0)
(2.99999 2.07935e-05 0)
(3.00008 -0.000153613 0)
(2.99918 0.00145031 0)
(2.99163 0.0155861 0)
(2.88713 0.173834 0)
(2.75599 0.424634 0)
(2.46767 0.757746 0)
(2.31688 0.923739 0)
(2.27596 0.94291 0)
(2.28542 0.939899 0)
(2.29866 0.927353 0)
(2.32539 0.899366 0)
(2.35138 0.863266 0)
(2.36143 0.845327 0)
(2.36454 0.840649 0)
(2.35952 0.841567 0)
(2.35617 0.84481 0)
(2.35301 0.851298 0)
(2.35033 0.856595 0)
(3 -1.12097e-10 0)
(3 2.17762e-09 0)
(3 -1.74407e-08 0)
(3 -4.38329e-08 0)
(3 -5.61253e-07 0)
(3 -7.66513e-07 0)
(3 -5.5449e-06 0)
(3 -4.09241e-06 0)
(3.00003 -6.48748e-05 0)
(2.9992 0.000871639 0)
(2.98539 0.0223271 0)
(2.8858 0.150141 0)
(2.59049 0.527392 0)
(2.48553 0.700683 0)
(2.33961 0.863155 0)
(2.29008 0.904172 0)
(2.29712 0.899276 0)
(2.31927 0.878438 0)
(2.34155 0.862901 0)
(2.35303 0.858389 0)
(2.35839 0.843593 0)
(2.358 0.840958 0)
(2.35613 0.843233 0)
(2.34967 0.854269 0)
(3 3.42068e-12 0)
(3 5.83734e-11 0)
(3 8.78024e-11 0)
(3 -3.34435e-10 0)
(3 3.92868e-10 0)
(3 -4.92725e-08 0)
(3 -9.74896e-08 0)
(3 -2.94359e-07 0)
(3 -6.48565e-06 0)
(3 -6.2142e-06 0)
(3.00002 -5.01991e-05 0)
(2.99868 0.0017072 0)
(2.96719 0.0415359 0)
(2.86019 0.201348 0)
(2.50683 0.618484 0)
(2.36546 0.779954 0)
(2.32149 0.849298 0)
(2.30754 0.87822 0)
(2.30952 0.8805 0)
(2.326 0.868426 0)
(2.34172 0.846279 0)
(2.34833 0.832455 0)
(2.35097 0.834136 0)
(2.34951 0.839068 0)
(3 3.22061e-13 0)
(3 2.74109e-13 0)
(3 3.43412e-12 0)
(3 7.00254e-12 0)
(3 1.5833e-11 0)
(3 -4.04689e-10 0)
(3 2.56192e-11 0)
(3 -9.88762e-10 0)
(3 -1.71366e-08 0)
(3 -3.93404e-07 0)
(3 -6.77798e-06 0)
(3.00001 -1.25369e-05 0)
(2.99998 3.31249e-05 0)
(2.99692 0.00439912 0)
(2.92344 0.0954517 0)
(2.78723 0.294347 0)
(2.43698 0.696912 0)
(2.30271 0.861659 0)
(2.3077 0.857309 0)
(2.31023 0.857172 0)
(2.31082 0.853875 0)
(2.32581 0.843179 0)
(2.33717 0.838766 0)
(2.3417 0.839772 0)
(3 -7.92824e-16 0)
(3 -1.68872e-15 0)
(3 1.97266e-14 0)
(3 8.04026e-13 0)
(3 3.85649e-12 0)
(3 6.56029e-12 0)
(3 8.40319e-12 0)
(3 5.74766e-12 0)
(3 1.80039e-10 0)
(3 -1.37348e-09 0)
(3 -3.55734e-08 0)
(3 -8.17859e-07 0)
(3 -1.30374e-06 0)
(3.00001 -2.14806e-05 0)
(2.9994 0.000982841 0)
(2.99065 0.0158224 0)
(2.85166 0.187907 0)
(2.64896 0.459294 0)
(2.45315 0.705875 0)
(2.30081 0.890445 0)
(2.27575 0.878038 0)
(2.3 0.858895 0)
(2.31753 0.844972 0)
(2.32534 0.844759 0)
(3 4.32892e-16 0)
(3 -2.4476e-16 0)
(3 -2.24364e-15 0)
(3 2.21614e-15 0)
(3 9.52422e-14 0)
(3 7.78816e-13 0)
(3 2.1946e-12 0)
(3 2.28876e-12 0)
(3 1.89019e-11 0)
(3 1.74449e-11 0)
(3 3.29083e-10 0)
(3 -2.94995e-09 0)
(3 -8.22538e-08 0)
(3 -3.59237e-06 0)
(3 -2.75773e-06 0)
(3.00001 -2.64392e-05 0)
(2.99627 0.00587545 0)
(2.9646 0.0551968 0)
(2.74945 0.338487 0)
(2.48901 0.673877 0)
(2.40745 0.771768 0)
(2.34076 0.827329 0)
(2.32259 0.842666 0)
(2.32143 0.83952 0)
(3 8.63157e-16 0)
(3 2.93858e-16 0)
(3 -6.03763e-16 0)
(3 9.11919e-17 0)
(3 5.39866e-17 0)
(3 7.83967e-15 0)
(3 6.00874e-14 0)
(3 1.80187e-13 0)
(3 6.97502e-13 0)
(3 2.58092e-12 0)
(3 4.96011e-11 0)
(3 5.03331e-11 0)
(3 -3.929e-10 0)
(3 -6.68975e-08 0)
(3 -4.78205e-07 0)
(3 -2.20909e-06 0)
(3.00001 -1.40022e-05 0)
(2.9997 0.000552106 0)
(2.98147 0.0269883 0)
(2.87489 0.178964 0)
(2.63247 0.530636 0)
(2.37405 0.837797 0)
(2.33891 0.834499 0)
(2.32819 0.828484 0)
(3 5.50374e-16 0)
(3 -8.36177e-16 0)
(3 -1.51177e-15 0)
(3 -1.41232e-15 0)
(3 -7.40076e-16 0)
(3 -1.79389e-16 0)
(3 5.79853e-16 0)
(3 3.71024e-15 0)
(3 3.91083e-15 0)
(3 2.35178e-14 0)
(3 8.91272e-13 0)
(3 9.35504e-12 0)
(3 6.37961e-12 0)
(3 2.46796e-10 0)
(3 -1.13098e-08 0)
(3 -9.01476e-08 0)
(3 -1.89315e-06 0)
(3 -4.52382e-06 0)
(2.99991 0.000150181 0)
(2.99553 0.00866427 0)
(2.93362 0.102116 0)
(2.67505 0.458562 0)
(2.52016 0.662434 0)
(2.3677 0.827733 0)
(3 -2.93789e-16 0)
(3 -6.23702e-16 0)
(3 -1.75762e-15 0)
(3 -1.91742e-15 0)
(3 -2.12769e-15 0)
(3 -8.37928e-16 0)
(3 1.11548e-15 0)
(3 9.97222e-16 0)
(3 5.34034e-16 0)
(3 -1.74384e-16 0)
(3 1.43046e-15 0)
(3 1.28358e-14 0)
(3 1.55062e-12 0)
(3 1.41491e-11 0)
(3 9.81257e-11 0)
(3 -6.98691e-10 0)
(3 -2.09266e-08 0)
(3 -8.98136e-07 0)
(3 -1.88391e-06 0)
(2.99999 8.59713e-06 0)
(2.99796 0.00358037 0)
(2.95939 0.0635706 0)
(2.79403 0.328419 0)
(2.54956 0.658766 0)
(3 -9.34857e-16 0)
(3 -9.01827e-16 0)
(3 -1.24346e-15 0)
(3 -2.06471e-15 0)
(3 -2.48768e-15 0)
(3 -2.31657e-15 0)
(3 -3.00699e-16 0)
(3 9.32162e-16 0)
(3 3.62668e-16 0)
(3 -1.43023e-16 0)
(3 -1.9411e-15 0)
(3 -2.26501e-15 0)
(3 5.61233e-15 0)
(3 4.47571e-13 0)
(3 8.14381e-12 0)
(3 2.15315e-11 0)
(3 -1.41523e-11 0)
(3 -1.72289e-08 0)
(3 -5.64036e-07 0)
(3 -4.96066e-07 0)
(3 -7.61167e-07 0)
(2.99934 0.00128758 0)
(2.9783 0.0405621 0)
(2.88877 0.207266 0)
(3 -4.65602e-16 0)
(3 -4.22856e-16 0)
(3 -5.64206e-16 0)
(3 -6.73088e-16 0)
(3 -6.77555e-16 0)
(3 -1.23034e-15 0)
(3 -1.59587e-15 0)
(3 -1.28477e-15 0)
(3 -1.98876e-15 0)
(3 -2.89607e-15 0)
(3 -3.00867e-15 0)
(3 -2.34142e-15 0)
(3 -1.95567e-15 0)
(3 6.05903e-16 0)
(3 7.79435e-13 0)
(3 7.99318e-12 0)
(3 7.67782e-12 0)
(3 -2.2287e-11 0)
(3 -2.59617e-08 0)
(3 -1.30315e-07 0)
(3 -3.07266e-07 0)
(3 -3.45954e-06 0)
(2.99962 0.000797906 0)
(2.99467 0.0136023 0)
(3 -1.61933e-15 0)
(3 -1.18667e-15 0)
(3 1.14701e-16 0)
(3 3.20787e-16 0)
(3 2.79383e-16 0)
(3 -5.48192e-16 0)
(3 -1.36905e-15 0)
(3 -1.85267e-15 0)
(3 -1.76247e-15 0)
(3 -1.62092e-15 0)
(3 -1.58812e-15 0)
(3 -1.31001e-15 0)
(3 -8.10411e-16 0)
(3 -5.58158e-16 0)
(3 3.71152e-15 0)
(3 4.93111e-13 0)
(3 2.7895e-12 0)
(3 2.48469e-12 0)
(3 -7.54143e-11 0)
(3 -1.03895e-08 0)
(3 -4.49577e-08 0)
(3 -5.68102e-07 0)
(3 6.736e-06 0)
(2.99999 -3.51888e-05 0)
(3 -1.48585e-15 0)
(3 -8.81851e-16 0)
(3 -9.47861e-16 0)
(3 -9.23506e-16 0)
(3 -2.1947e-16 0)
(3 4.4259e-16 0)
(3 9.97385e-17 0)
(3 1.4987e-16 0)
(3 5.16137e-16 0)
(3 1.04019e-15 0)
(3 1.24297e-15 0)
(3 2.30899e-16 0)
(3 -5.60644e-16 0)
(3 -1.45883e-15 0)
(3 -1.61534e-15 0)
(3 3.65267e-15 0)
(3 7.47226e-14 0)
(3 7.57759e-13 0)
(3 3.78009e-13 0)
(3 -1.04159e-10 0)
(3 -1.74115e-09 0)
(3 -8.93826e-08 0)
(3 -4.69411e-08 0)
(3 -8.08846e-07 0)
(3 -1.16095e-15 0)
(3 -1.05702e-15 0)
(3 -1.4053e-15 0)
(3 -1.40153e-15 0)
(3 -1.3006e-15 0)
(3 -2.96858e-16 0)
(3 3.55016e-18 0)
(3 5.72667e-17 0)
(3 3.82087e-16 0)
(3 1.78911e-15 0)
(3 2.33488e-15 0)
(3 2.03142e-15 0)
(3 -1.15857e-16 0)
(3 -1.38823e-15 0)
(3 -1.7571e-15 0)
(3 -2.0581e-15 0)
(3 -1.45858e-13 0)
(3 -7.16277e-13 0)
(3 -4.79283e-13 0)
(3 1.33955e-10 0)
(3 8.25477e-10 0)
(3 8.57448e-08 0)
(3 2.07048e-08 0)
(3 6.6822e-07 0)
(3 -3.0191e-15 0)
(3 -3.38954e-15 0)
(3 -2.71915e-15 0)
(3 -2.20326e-15 0)
(3 -1.96503e-15 0)
(3 -1.76763e-15 0)
(3 -1.97076e-15 0)
(3 -2.11988e-15 0)
(3 -2.2843e-15 0)
(3 -1.3907e-16 0)
(3 7.71415e-16 0)
(3 1.67354e-15 0)
(3 1.1977e-15 0)
(3 1.45623e-15 0)
(3 -3.76805e-15 0)
(3 -4.70666e-13 0)
(3 -2.87074e-12 0)
(3 -2.50318e-12 0)
(3 6.85008e-11 0)
(3 1.06142e-08 0)
(3 4.41095e-08 0)
(3 5.70467e-07 0)
(3.00001 -6.89304e-06 0)
(2.99999 3.42542e-05 0)
(3 -2.88045e-15 0)
(3 -3.16417e-15 0)
(3 -2.95974e-15 0)
(3 -2.12976e-15 0)
(3 -1.25014e-15 0)
(3 -1.09811e-15 0)
(3 -1.09495e-15 0)
(3 -1.94331e-15 0)
(3 -3.06415e-15 0)
(3 -3.16161e-15 0)
(3 -1.42337e-15 0)
(3 -5.47413e-16 0)
(3 1.09873e-15 0)
(3 1.34833e-16 0)
(3 -7.73877e-13 0)
(3 -7.98635e-12 0)
(3 -7.74805e-12 0)
(3 2.49192e-11 0)
(3 2.57851e-08 0)
(3 1.31865e-07 0)
(3 3.07479e-07 0)
(3 3.4268e-06 0)
(2.99963 -0.000792714 0)
(2.99459 -0.0137029 0)
(3 -1.39426e-15 0)
(3 -8.65173e-16 0)
(3 -7.71913e-16 0)
(3 -2.20065e-16 0)
(3 -1.21929e-15 0)
(3 -1.20826e-15 0)
(3 -8.29781e-16 0)
(3 -2.83417e-16 0)
(3 3.21083e-16 0)
(3 2.56398e-16 0)
(3 3.23926e-16 0)
(3 -3.45457e-16 0)
(3 -8.7561e-15 0)
(3 -4.5347e-13 0)
(3 -8.10506e-12 0)
(3 -2.14771e-11 0)
(3 1.3677e-11 0)
(3 1.73444e-08 0)
(3 5.63642e-07 0)
(3 4.95293e-07 0)
(3 7.70314e-07 0)
(2.99934 -0.0012889 0)
(2.97831 -0.0405236 0)
(2.88852 -0.207413 0)
(3 -7.75836e-16 0)
(3 8.73025e-17 0)
(3 7.90117e-16 0)
(3 2.67895e-16 0)
(3 -7.41735e-16 0)
(3 -1.63777e-15 0)
(3 -1.79261e-15 0)
(3 -1.92547e-15 0)
(3 1.44845e-18 0)
(3 1.24321e-15 0)
(3 -2.10761e-15 0)
(3 -1.46351e-14 0)
(3 -1.55302e-12 0)
(3 -1.41402e-11 0)
(3 -9.80992e-11 0)
(3 6.98872e-10 0)
(3 2.09206e-08 0)
(3 8.9827e-07 0)
(3 1.88312e-06 0)
(2.99999 -8.58942e-06 0)
(2.99796 -0.00358062 0)
(2.95938 -0.0635793 0)
(2.79411 -0.328347 0)
(2.54931 -0.658972 0)
(3 -1.11795e-16 0)
(3 8.66762e-17 0)
(3 1.05302e-15 0)
(3 -1.5942e-16 0)
(3 -8.28247e-16 0)
(3 -1.74715e-15 0)
(3 -2.26943e-15 0)
(3 -5.83085e-15 0)
(3 -5.72991e-15 0)
(3 -2.21398e-14 0)
(3 -8.87531e-13 0)
(3 -9.34647e-12 0)
(3 -6.37651e-12 0)
(3 -2.46749e-10 0)
(3 1.13093e-08 0)
(3 9.01517e-08 0)
(3 1.89312e-06 0)
(3 4.52337e-06 0)
(2.99991 -0.00015015 0)
(2.99553 -0.00866485 0)
(2.93363 -0.102108 0)
(2.67503 -0.458584 0)
(2.52015 -0.662444 0)
(2.3677 -0.82773 0)
(3 1.24769e-15 0)
(3 2.70272e-15 0)
(3 1.53779e-15 0)
(3 -1.54189e-16 0)
(3 -1.3413e-15 0)
(3 -1.0653e-14 0)
(3 -6.66428e-14 0)
(3 -1.84536e-13 0)
(3 -6.97141e-13 0)
(3 -2.57937e-12 0)
(3 -4.96063e-11 0)
(3 -5.03384e-11 0)
(3 3.92855e-10 0)
(3 6.68974e-08 0)
(3 4.78182e-07 0)
(3 2.2092e-06 0)
(3.00001 1.40024e-05 0)
(2.9997 -0.000552126 0)
(2.98147 -0.0269873 0)
(2.87488 -0.178974 0)
(2.63251 -0.530607 0)
(2.37403 -0.837826 0)
(2.3389 -0.834512 0)
(2.32819 -0.828473 0)
(3 1.26177e-15 0)
(3 1.76469e-15 0)
(3 1.93893e-15 0)
(3 -3.71265e-15 0)
(3 -9.65107e-14 0)
(3 -7.77336e-13 0)
(3 -2.19351e-12 0)
(3 -2.29136e-12 0)
(3 -1.89064e-11 0)
(3 -1.74508e-11 0)
(3 -3.29088e-10 0)
(3 2.94992e-09 0)
(3 8.22545e-08 0)
(3 3.59231e-06 0)
(3 2.7577e-06 0)
(3.00001 2.64404e-05 0)
(2.99627 -0.00587552 0)
(2.9646 -0.0551956 0)
(2.74944 -0.338494 0)
(2.48901 -0.673874 0)
(2.40746 -0.771758 0)
(2.34076 -0.827332 0)
(2.32258 -0.842671 0)
(2.32142 -0.83952 0)
(3 -8.96314e-16 0)
(3 2.47067e-16 0)
(3 -2.16448e-14 0)
(3 -8.047e-13 0)
(3 -3.86577e-12 0)
(3 -6.55732e-12 0)
(3 -8.39944e-12 0)
(3 -5.74723e-12 0)
(3 -1.8004e-10 0)
(3 1.37344e-09 0)
(3 3.55743e-08 0)
(3 8.17855e-07 0)
(3 1.30375e-06 0)
(3.00001 2.14805e-05 0)
(2.9994 -0.00098284 0)
(2.99065 -0.0158223 0)
(2.85166 -0.187909 0)
(2.64897 -0.459288 0)
(2.45314 -0.705881 0)
(2.3008 -0.890447 0)
(2.27575 -0.878036 0)
(2.3 -0.858892 0)
(2.31753 -0.844975 0)
(2.32534 -0.844761 0)
(3 -3.24733e-13 0)
(3 -2.76009e-13 0)
(3 -3.4349e-12 0)
(3 -7.0062e-12 0)
(3 -1.58374e-11 0)
(3 4.04685e-10 0)
(3 -2.56242e-11 0)
(3 9.88757e-10 0)
(3 1.71366e-08 0)
(3 3.93404e-07 0)
(3 6.77797e-06 0)
(3.00001 1.25368e-05 0)
(2.99998 -3.31244e-05 0)
(2.99692 -0.00439913 0)
(2.92344 -0.0954514 0)
(2.78723 -0.294348 0)
(2.43698 -0.696911 0)
(2.30271 -0.861659 0)
(2.3077 -0.85731 0)
(2.31023 -0.857173 0)
(2.31082 -0.853873 0)
(2.32581 -0.843178 0)
(2.33717 -0.838768 0)
(2.3417 -0.839772 0)
(3 -3.42175e-12 0)
(3 -5.83757e-11 0)
(3 -8.7804e-11 0)
(3 3.34434e-10 0)
(3 -3.92867e-10 0)
(3 4.92724e-08 0)
(3 9.74896e-08 0)
(3 2.94359e-07 0)
(3 6.48565e-06 0)
(3 6.2142e-06 0)
(3.00002 5.0199e-05 0)
(2.99868 -0.0017072 0)
(2.96719 -0.0415359 0)
(2.86019 -0.201348 0)
(2.50683 -0.618484 0)
(2.36546 -0.779955 0)
(2.32149 -0.849297 0)
(2.30754 -0.87822 0)
(2.30952 -0.880501 0)
(2.326 -0.868426 0)
(2.34172 -0.846278 0)
(2.34833 -0.832455 0)
(2.35097 -0.834136 0)
(2.34951 -0.839068 0)
(3 1.12097e-10 0)
(3 -2.17762e-09 0)
(3 1.74408e-08 0)
(3 4.38329e-08 0)
(3 5.61253e-07 0)
(3 7.66513e-07 0)
(3 5.5449e-06 0)
(3 4.09241e-06 0)
(3.00003 6.48747e-05 0)
(2.9992 -0.000871638 0)
(2.98538 -0.0223272 0)
(2.8858 -0.150141 0)
(2.59049 -0.527392 0)
(2.48553 -0.700683 0)
(2.33961 -0.863155 0)
(2.29008 -0.904172 0)
(2.29712 -0.899276 0)
(2.31927 -0.878438 0)
(2.34155 -0.862901 0)
(2.35303 -0.858389 0)
(2.35839 -0.843593 0)
(2.358 -0.840958 0)
(2.35613 -0.843233 0)
(2.34967 -0.854269 0)
(3 2.24043e-08 0)
(3 1.08966e-06 0)
(3 6.86966e-07 0)
(3 4.82526e-07 0)
(3.00001 8.12711e-06 0)
(2.99999 -2.07935e-05 0)
(3.00008 0.000153613 0)
(2.99918 -0.00145031 0)
(2.99163 -0.0155861 0)
(2.88713 -0.173834 0)
(2.75599 -0.424634 0)
(2.46767 -0.757746 0)
(2.31688 -0.923739 0)
(2.27596 -0.94291 0)
(2.28542 -0.939899 0)
(2.29866 -0.927353 0)
(2.32539 -0.899366 0)
(2.35138 -0.863266 0)
(2.36143 -0.845327 0)
(2.36454 -0.840649 0)
(2.35952 -0.841567 0)
(2.35617 -0.84481 0)
(2.35301 -0.851298 0)
(2.35033 -0.856595 0)
(3 3.77397e-07 0)
(3.00002 3.69529e-05 0)
(2.99991 -0.000129167 0)
(2.99993 -9.75053e-05 0)
(2.99856 -0.0019496 0)
(2.99163 -0.0124168 0)
(2.96585 -0.0524502 0)
(2.89491 -0.179465 0)
(2.79329 -0.391536 0)
(2.56927 -0.724177 0)
(2.44941 -0.853382 0)
(2.34107 -0.929475 0)
(2.29683 -0.9144 0)
(2.29579 -0.897343 0)
(2.30653 -0.889223 0)
(2.33639 -0.874559 0)
(2.35562 -0.862748 0)
(2.36257 -0.85098 0)
(2.36216 -0.842037 0)
(2.36015 -0.842546 0)
(2.35573 -0.844608 0)
(2.35117 -0.84756 0)
(2.34924 -0.848238 0)
(2.34634 -0.848607 0)
(2.99892 -0.00104679 0)
(2.99018 -0.0111703 0)
(2.95789 -0.052877 0)
(2.90606 -0.130306 0)
(2.79829 -0.27859 0)
(2.68715 -0.45885 0)
(2.52954 -0.68621 0)
(2.37607 -0.906128 0)
(2.23803 -1.05951 0)
(2.17184 -1.10436 0)
(2.13465 -1.04583 0)
(2.19238 -1.00044 0)
(2.25696 -0.940776 0)
(2.2895 -0.900137 0)
(2.32932 -0.861992 0)
(2.34814 -0.830305 0)
(2.35528 -0.828733 0)
(2.36234 -0.834123 0)
(2.35613 -0.839135 0)
(2.35087 -0.842945 0)
(2.34673 -0.843951 0)
(2.34563 -0.845402 0)
(2.34602 -0.845997 0)
(2.34332 -0.845427 0)
(2.93302 -0.0136289 0)
(2.85006 -0.0533425 0)
(2.74729 -0.175906 0)
(2.68653 -0.217306 0)
(2.5652 -0.362494 0)
(2.50617 -0.442365 0)
(2.42178 -0.542328 0)
(2.34977 -0.626915 0)
(2.31455 -0.725082 0)
(2.25917 -0.797853 0)
(2.2466 -0.854699 0)
(2.27989 -0.883554 0)
(2.3277 -0.893622 0)
(2.33953 -0.887424 0)
(2.34629 -0.879473 0)