/*--------------------------------*- C++ -*----------------------------------*\
  =========                 |
  \\      /  F ield         | OpenFOAM: The Open Source CFD Toolbox
   \\    /   O peration     | Website:  https://openfoam.org
    \\  /    A nd           | Version:  7
     \\/     M anipulation  |
\*---------------------------------------------------------------------------*/
FoamFile
{
    version     2.0;
    format      ascii;
    class       volVectorField;
    location    "1.4";
    object      U;
}
// * * * * * * * * * * * * * * * * * * * * * * * * * * * * * * * * * * * * * //

dimensions      [0 1 -1 0 0 0 0];

internalField   nonuniform List<vector> 
73728
(
(3 -8.26954e-17 0)
(3 -1.10556e-17 0)
(3 7.0289e-17 0)
(3 -1.19635e-16 0)
(3 -2.05045e-16 0)
(3 -3.0799e-17 0)
(3 1.60875e-16 0)
(3 4.38684e-16 0)
(3 1.72718e-16 0)
(3 -6.98819e-17 0)
(3 -2.15137e-16 0)
(3 -3.49883e-16 0)
(3 -2.90023e-16 0)
(3 -2.48646e-16 0)
(3 1.52577e-16 0)
(3 2.61015e-16 0)
(3 -4.3483e-16 0)
(3 -9.06414e-16 0)
(3 -5.42486e-16 0)
(3 -2.76443e-16 0)
(3 -4.81871e-17 0)
(3 8.00835e-16 0)
(3 9.38388e-16 0)
(3 5.95474e-16 0)
(3 -8.35971e-16 0)
(3 -1.12014e-15 0)
(3 -9.72723e-17 0)
(3 2.45125e-16 0)
(3 3.82869e-16 0)
(3 1.1833e-16 0)
(3 -2.96656e-16 0)
(3 -1.50929e-16 0)
(3 -8.13769e-17 0)
(3 -3.00684e-16 0)
(3 -1.10632e-15 0)
(3 -1.02949e-15 0)
(3 1.572e-16 0)
(3 1.56859e-15 0)
(3 2.36777e-15 0)
(3 1.73929e-15 0)
(3 1.30198e-15 0)
(3 8.98916e-16 0)
(3 4.67439e-16 0)
(3 2.38879e-16 0)
(3 -4.94708e-17 0)
(3 -1.90901e-17 0)
(3 3.23339e-16 0)
(3 6.29704e-16 0)
(3 4.13396e-16 0)
(3 -1.86795e-16 0)
(3 -1.29725e-15 0)
(3 -2.1718e-15 0)
(3 -2.42613e-15 0)
(3 -2.12379e-15 0)
(3 -9.85212e-16 0)
(3 3.36e-16 0)
(3 5.74409e-16 0)
(3 9.84301e-16 0)
(3 1.05218e-15 0)
(3 1.00391e-15 0)
(3 6.44667e-17 0)
(3 -9.81094e-16 0)
(3 -1.27601e-15 0)
(3 -9.44928e-17 0)
(3 -1.22971e-16 0)
(3 -6.28678e-16 0)
(3 -7.07937e-16 0)
(3 -7.35752e-16 0)
(3 -9.89884e-16 0)
(3 -1.24059e-15 0)
(3 -1.61772e-15 0)
(3 -1.7835e-15 0)
(3 -2.9582e-15 0)
(3 -2.40705e-15 0)
(3 -1.83403e-15 0)
(3 -1.01708e-15 0)
(3 -1.98996e-16 0)
(3 -1.95756e-16 0)
(3 -6.28111e-16 0)
(3 -5.78834e-16 0)
(3 -2.2281e-16 0)
(3 -5.53689e-16 0)
(3 -8.26915e-16 0)
(3 -9.49516e-16 0)
(3 -1.31847e-15 0)
(3 -1.009e-15 0)
(3 -1.88355e-15 0)
(3 -2.03018e-15 0)
(3 -2.47347e-15 0)
(3 -2.39516e-15 0)
(3 -6.44848e-16 0)
(3 6.53353e-16 0)
(3 6.16252e-16 0)
(3 1.13489e-15 0)
(3 2.29993e-15 0)
(3 2.10567e-15 0)
(3 -2.39443e-16 0)
(3 -3.92185e-16 0)
(3 2.2404e-16 0)
(3 -8.8326e-16 0)
(3 -1.36932e-15 0)
(3 -1.25375e-15 0)
(3 -8.31776e-16 0)
(3 -5.86504e-16 0)
(3 -1.19726e-15 0)
(3 -1.79576e-15 0)
(3 -1.76084e-15 0)
(3 -9.04394e-16 0)
(3 -6.76301e-16 0)
(3 -9.23769e-16 0)
(3 -7.71173e-16 0)
(3 -7.65799e-16 0)
(3 -1.95188e-15 0)
(3 -2.95158e-15 0)
(3 -2.49946e-15 0)
(3 -2.24255e-15 0)
(3 -1.6811e-15 0)
(3 7.59949e-17 0)
(3 3.69787e-17 0)
(3 -3.25277e-16 0)
(3 -1.68546e-15 0)
(3 -1.88491e-15 0)
(3 -1.24905e-15 0)
(3 -8.52803e-16 0)
(3 -8.0817e-16 0)
(3 -1.30049e-15 0)
(3 -1.97463e-15 0)
(3 -1.88569e-15 0)
(3 -4.5586e-16 0)
(3 -6.16226e-16 0)
(3 -1.65873e-15 0)
(3 -1.36311e-15 0)
(3 2.87408e-16 0)
(3 2.05874e-15 0)
(3 1.8665e-15 0)
(3 2.4015e-15 0)
(3 1.9613e-15 0)
(3 1.19842e-15 0)
(3 8.79277e-16 0)
(3 5.78229e-16 0)
(3 5.50846e-16 0)
(3 9.63037e-16 0)
(3 1.40833e-15 0)
(3 1.14891e-15 0)
(3 8.49057e-16 0)
(3 -5.76075e-16 0)
(3 -8.27565e-16 0)
(3 -7.69463e-16 0)
(3 -9.3576e-16 0)
(3 -7.48783e-16 0)
(3 3.88704e-16 0)
(3 2.82739e-15 0)
(3 2.80969e-15 0)
(3 2.46784e-15 0)
(3 1.84913e-15 0)
(3 1.26342e-16 0)
(3 -1.10092e-15 0)
(3 -2.05225e-15 0)
(3 -2.45382e-15 0)
(3 -1.62167e-15 0)
(3 -3.47002e-16 0)
(3 -3.80829e-16 0)
(3 -5.34932e-16 0)
(3 -7.58709e-16 0)
(3 -8.35302e-16 0)
(3 -1.31604e-15 0)
(3 -1.76832e-15 0)
(3 -2.38391e-15 0)
(3 -3.107e-15 0)
(3 -3.37714e-15 0)
(3 -2.22362e-15 0)
(3 -8.10966e-16 0)
(3 -2.21144e-16 0)
(3 -3.63119e-16 0)
(3 -7.43342e-16 0)
(3 -7.38866e-16 0)
(3 -3.69026e-16 0)
(3 -9.39497e-16 0)
(3 -1.48593e-15 0)
(3 -2.84959e-15 0)
(3 -3.50037e-15 0)
(3 -3.38634e-15 0)
(3 -4.58452e-15 0)
(3 -3.19083e-15 0)
(3 -2.39686e-15 0)
(3 -2.26287e-15 0)
(3 -1.44274e-15 0)
(3 8.67929e-16 0)
(3 1.18e-15 0)
(3 1.40027e-15 0)
(3 2.21266e-15 0)
(3 1.71892e-15 0)
(3 1.18162e-16 0)
(3 1.50205e-16 0)
(3 1.82373e-16 0)
(3 -6.10867e-17 0)
(3 -6.74131e-16 0)
(3 -1.45399e-15 0)
(3 -1.55104e-15 0)
(3 -1.85584e-15 0)
(3 -2.38626e-15 0)
(3 -2.7876e-15 0)
(3 -2.90855e-15 0)
(3 -2.82401e-15 0)
(3 -2.77702e-15 0)
(3 -2.75361e-15 0)
(3 -3.2379e-15 0)
(3 -3.37182e-15 0)
(3 -3.94645e-15 0)
(3 -3.76859e-15 0)
(3 -2.86835e-15 0)
(3 -2.42337e-15 0)
(3 -8.46388e-16 0)
(3 -1.80761e-16 0)
(3 6.50799e-17 0)
(3 -2.73144e-16 0)
(3 -2.4541e-16 0)
(3 -1.16973e-15 0)
(3 -2.37605e-15 0)
(3 -2.6285e-15 0)
(3 -2.3715e-15 0)
(3 -2.59491e-15 0)
(3 -2.85082e-15 0)
(3 -4.70237e-15 0)
(3 -3.8552e-15 0)
(3 -1.79995e-15 0)
(3 7.43503e-16 0)
(3 1.50589e-15 0)
(3 1.56197e-17 0)
(3 -2.89055e-16 0)
(3 2.37159e-16 0)
(3 6.16503e-16 0)
(3 2.482e-16 0)
(3 1.08728e-15 0)
(3 1.89225e-15 0)
(3 1.68382e-15 0)
(3 2.46743e-15 0)
(3 2.53134e-15 0)
(3 2.3124e-15 0)
(3 7.29886e-16 0)
(3 -6.87462e-16 0)
(3 -8.74392e-16 0)
(3 -4.9277e-16 0)
(3 4.78873e-17 0)
(3 4.40924e-16 0)
(3 1.64043e-16 0)
(3 1.02841e-15 0)
(3 1.22996e-15 0)
(3 1.53427e-15 0)
(3 1.54453e-15 0)
(3 1.50406e-15 0)
(3 7.05224e-16 0)
(3 -1.02396e-16 0)
(3 -2.15855e-16 0)
(3 -7.24074e-16 0)
(3 -8.35644e-16 0)
(3 -2.6825e-16 0)
(3 8.07017e-16 0)
(3 1.02409e-15 0)
(3 8.46957e-16 0)
(3 1.15832e-15 0)
(3 1.03828e-15 0)
(3 5.80212e-16 0)
(3 7.7325e-17 0)
(3 -2.1728e-17 0)
(3 -7.91132e-17 0)
(3 1.03362e-15 0)
(3 1.26492e-15 0)
(3 1.36743e-15 0)
(3 1.32867e-15 0)
(3 1.08792e-15 0)
(3 7.00758e-16 0)
(3 8.54089e-16 0)
(3 -2.94343e-16 0)
(3 -1.68431e-15 0)
(3 -2.93355e-15 0)
(3 -3.78144e-15 0)
(3 -5.52521e-15 0)
(3 -5.39188e-15 0)
(3 -4.27098e-15 0)
(3 -3.24e-15 0)
(3 -2.73949e-15 0)
(3 -2.84701e-15 0)
(3 -1.82531e-15 0)
(3 1.44328e-16 0)
(3 9.78429e-16 0)
(3 -1.25288e-15 0)
(3 -1.1697e-15 0)
(3 6.12744e-17 0)
(3 -4.7247e-17 0)
(3 -2.83632e-16 0)
(3 3.93718e-16 0)
(3 3.61082e-16 0)
(3 -1.44733e-16 0)
(3 -6.72494e-16 0)
(3 -7.37859e-16 0)
(3 -3.81322e-16 0)
(3 -3.35672e-16 0)
(3 -9.26096e-16 0)
(3 -1.72587e-15 0)
(3 -1.66454e-15 0)
(3 -2.30764e-15 0)
(3 -2.9959e-15 0)
(3 -2.68628e-15 0)
(3 -2.28947e-15 0)
(3 -1.76924e-15 0)
(3 -9.9389e-16 0)
(3 -5.10179e-16 0)
(3 6.0834e-16 0)
(3 8.85241e-16 0)
(3 1.32456e-15 0)
(3 1.29709e-15 0)
(3 9.3537e-16 0)
(3 2.42001e-16 0)
(3 -1.245e-15 0)
(3 -2.13355e-15 0)
(3 -2.54221e-15 0)
(3 -3.07743e-15 0)
(3 -3.85637e-15 0)
(3 -4.16288e-15 0)
(3 -3.63448e-15 0)
(3 -3.07166e-15 0)
(3 -1.41449e-15 0)
(3 -3.00373e-16 0)
(3 -2.193e-16 0)
(3 -1.18427e-16 0)
(3 1.15605e-15 0)
(3 8.88746e-16 0)
(3 7.943e-16 0)
(3 1.75399e-15 0)
(3 3.74838e-15 0)
(3 4.28295e-15 0)
(3 4.02784e-15 0)
(3 2.06177e-15 0)
(3 1.29894e-15 0)
(3 -2.72947e-17 0)
(3 -1.5087e-15 0)
(3 -2.07033e-15 0)
(3 -1.65079e-15 0)
(3 -4.39602e-16 0)
(3 3.93734e-16 0)
(3 1.03427e-15 0)
(3 -3.57502e-16 0)
(3 -1.03967e-15 0)
(3 -8.30209e-16 0)
(3 -7.13384e-16 0)
(3 1.17817e-16 0)
(3 7.77844e-16 0)
(3 4.9161e-16 0)
(3 3.39149e-16 0)
(3 7.47816e-16 0)
(3 3.73409e-16 0)
(3 6.14899e-16 0)
(3 1.85305e-15 0)
(3 2.34969e-15 0)
(3 2.00174e-15 0)
(3 1.72709e-15 0)
(3 2.11025e-15 0)
(3 2.25325e-15 0)
(3 2.38321e-15 0)
(3 1.91505e-15 0)
(3 2.20023e-15 0)
(3 2.42691e-15 0)
(3 2.51455e-15 0)
(3 3.515e-15 0)
(3 3.20699e-15 0)
(3 1.60203e-15 0)
(3 -1.94308e-18 0)
(3 -9.05356e-16 0)
(3 -9.83627e-16 0)
(3 -1.50979e-15 0)
(3 -2.27799e-15 0)
(3 -3.37139e-15 0)
(3 -4.72916e-15 0)
(3 -5.19291e-15 0)
(3 -5.19122e-15 0)
(3 -5.42422e-15 0)
(3 -5.40707e-15 0)
(3 -4.60431e-15 0)
(3 -3.97125e-15 0)
(3 -2.74301e-15 0)
(3 -3.19329e-15 0)
(3 -1.64001e-15 0)
(3 -3.02503e-16 0)
(3 -1.261e-16 0)
(3 -2.45432e-16 0)
(3 6.58439e-17 0)
(3 6.69119e-18 0)
(3 2.44691e-16 0)
(3 1.2469e-16 0)
(3 1.36529e-16 0)
(3 3.03078e-16 0)
(3 -3.83182e-16 0)
(3 -3.82237e-16 0)
(3 -6.60002e-17 0)
(3 -3.00064e-16 0)
(3 -3.81661e-16 0)
(3 -8.05442e-16 0)
(3 -7.45676e-16 0)
(3 -5.5357e-16 0)
(3 1.08967e-16 0)
(3 -1.66874e-17 0)
(3 -5.94786e-16 0)
(3 -6.61897e-16 0)
(3 -4.05779e-16 0)
(3 -4.32552e-17 0)
(3 -1.91253e-16 0)
(3 -1.83099e-16 0)
(3 -6.00926e-17 0)
(3 -7.14334e-16 0)
(3 -9.09101e-16 0)
(3 -2.2043e-15 0)
(3 -3.48561e-15 0)
(3 -3.44885e-15 0)
(3 -3.56174e-15 0)
(3 -3.64451e-15 0)
(3 -3.48141e-15 0)
(3 -3.51482e-15 0)
(3 -3.51447e-15 0)
(3 -3.05745e-15 0)
(3 -8.80704e-16 0)
(3 1.23104e-15 0)
(3 1.64841e-15 0)
(3 2.09033e-15 0)
(3 3.01989e-15 0)
(3 3.5744e-15 0)
(3 3.5445e-15 0)
(3 3.66673e-15 0)
(3 1.93951e-15 0)
(3 1.24433e-15 0)
(3 3.53972e-16 0)
(3 -4.14882e-16 0)
(3 -7.35436e-16 0)
(3 -4.13553e-16 0)
(3 -6.33045e-16 0)
(3 1.46752e-16 0)
(3 9.18683e-16 0)
(3 9.05008e-16 0)
(3 7.47385e-16 0)
(3 3.23878e-16 0)
(3 -2.74331e-16 0)
(3 5.96183e-17 0)
(3 3.11682e-16 0)
(3 7.44306e-16 0)
(3 1.62938e-15 0)
(3 1.57297e-15 0)
(3 1.37332e-15 0)
(3 1.2424e-15 0)
(3 1.47181e-15 0)
(3 1.4587e-15 0)
(3 9.64808e-16 0)
(3 1.33087e-15 0)
(3 1.77118e-15 0)
(3 1.81939e-15 0)
(3 2.42304e-15 0)
(3 2.50051e-15 0)
(3 1.9265e-15 0)
(3 1.86194e-15 0)
(3 2.06569e-15 0)
(3 2.427e-15 0)
(3 1.65764e-15 0)
(3 5.44276e-16 0)
(3 -7.77425e-16 0)
(3 -1.01657e-15 0)
(3 -2.42338e-15 0)
(3 -2.8087e-15 0)
(3 -3.32521e-15 0)
(3 -3.83466e-15 0)
(3 -3.82583e-15 0)
(3 -3.99989e-15 0)
(3 -4.71578e-15 0)
(3 -5.24684e-15 0)
(3 -5.33274e-15 0)
(3 -5.05308e-15 0)
(3 -4.9202e-15 0)
(3 -4.71299e-15 0)
(3 -6.94366e-15 0)
(3 -8.3753e-15 0)
(3 -5.61802e-15 0)
(3 -2.43236e-15 0)
(3 1.36257e-17 0)
(3 1.61772e-17 0)
(3 2.12863e-16 0)
(3 1.25376e-16 0)
(3 -8.16747e-17 0)
(3 -9.78091e-17 0)
(3 -1.34817e-16 0)
(3 -3.95879e-17 0)
(3 2.42917e-16 0)
(3 2.88948e-16 0)
(3 5.91473e-16 0)
(3 4.87039e-16 0)
(3 2.15817e-16 0)
(3 1.79066e-16 0)
(3 2.77611e-16 0)
(3 -1.97117e-16 0)
(3 -2.20224e-16 0)
(3 -4.35086e-16 0)
(3 -2.79794e-16 0)
(3 -1.52264e-16 0)
(3 -2.33044e-16 0)
(3 -6.31549e-17 0)
(3 9.64312e-17 0)
(3 5.17655e-16 0)
(3 7.22988e-16 0)
(3 6.2564e-16 0)
(3 -2.8072e-16 0)
(3 -1.87048e-15 0)
(3 -3.20732e-15 0)
(3 -3.92641e-15 0)
(3 -3.75536e-15 0)
(3 -3.72568e-15 0)
(3 -3.73424e-15 0)
(3 -3.21985e-15 0)
(3 -2.29599e-15 0)
(3 -1.83567e-15 0)
(3 -1.34019e-15 0)
(3 -2.68233e-16 0)
(3 6.6013e-16 0)
(3 1.05896e-15 0)
(3 1.537e-15 0)
(3 1.49292e-15 0)
(3 3.74826e-16 0)
(3 -4.29107e-16 0)
(3 -1.69448e-15 0)
(3 -1.83164e-15 0)
(3 -2.15723e-15 0)
(3 -1.4666e-15 0)
(3 -8.42166e-16 0)
(3 3.05722e-16 0)
(3 6.74683e-16 0)
(3 6.36046e-16 0)
(3 2.18066e-16 0)
(3 -5.57539e-16 0)
(3 -3.63357e-16 0)
(3 2.51006e-17 0)
(3 3.08342e-16 0)
(3 -3.00165e-16 0)
(3 -2.7066e-16 0)
(3 -3.45759e-16 0)
(3 8.13159e-17 0)
(3 6.17999e-16 0)
(3 7.39784e-16 0)
(3 8.44551e-16 0)
(3 1.29596e-15 0)
(3 1.79313e-15 0)
(3 2.30525e-15 0)
(3 2.94615e-15 0)
(3 3.65628e-15 0)
(3 3.75736e-15 0)
(3 4.03248e-15 0)
(3 4.31346e-15 0)
(3 4.31351e-15 0)
(3 3.00144e-15 0)
(3 2.18738e-15 0)
(3 2.26334e-15 0)
(3 4.019e-16 0)
(3 -6.84208e-16 0)
(3 -8.82543e-16 0)
(3 -8.04035e-16 0)
(3 -1.34862e-15 0)
(3 -2.41996e-15 0)
(3 -4.13056e-15 0)
(3 -4.74672e-15 0)
(3 -4.38878e-15 0)
(3 -3.43182e-15 0)
(3 -3.08782e-15 0)
(3 -3.47054e-15 0)
(3 -3.72323e-15 0)
(3 -4.12757e-15 0)
(3 -5.22143e-15 0)
(3 -8.18999e-15 0)
(3 -9.93087e-15 0)
(3 -9.75262e-15 0)
(3 -8.23174e-15 0)
(3 -5.32752e-15 0)
(3 -5.20556e-17 0)
(3 -3.60782e-16 0)
(3 -1.12757e-15 0)
(3 -9.93397e-16 0)
(3 -7.84801e-16 0)
(3 -8.17076e-16 0)
(3 -7.71937e-16 0)
(3 -3.60733e-16 0)
(3 6.06493e-16 0)
(3 7.01724e-16 0)
(3 1.43258e-18 0)
(3 -5.50911e-16 0)
(3 -7.84316e-16 0)
(3 -5.64704e-16 0)
(3 -2.03168e-16 0)
(3 -1.76383e-16 0)
(3 -4.06812e-16 0)
(3 -2.667e-16 0)
(3 -3.75027e-16 0)
(3 -8.64676e-16 0)
(3 -1.48478e-15 0)
(3 -1.51294e-15 0)
(3 -4.75652e-16 0)
(3 -1.98764e-16 0)
(3 -5.16868e-16 0)
(3 -1.9808e-16 0)
(3 -4.78153e-16 0)
(3 -4.07259e-16 0)
(3 -6.77418e-16 0)
(3 -2.3921e-15 0)
(3 -3.33524e-15 0)
(3 -3.41925e-15 0)
(3 -2.97162e-15 0)
(3 -2.65629e-15 0)
(3 -2.33275e-15 0)
(3 -2.54904e-15 0)
(3 -3.21691e-15 0)
(3 -3.55884e-15 0)
(3 -1.7148e-15 0)
(3 -4.24927e-16 0)
(3 -2.47796e-16 0)
(3 -2.15917e-16 0)
(3 -8.84588e-16 0)
(3 -1.84941e-15 0)
(3 -3.00384e-15 0)
(3 -3.85415e-15 0)
(3 -3.6578e-15 0)
(3 -2.91731e-15 0)
(3 -2.29405e-15 0)
(3 -1.82912e-15 0)
(3 -1.06391e-15 0)
(3 -9.40586e-16 0)
(3 -4.15392e-16 0)
(3 -4.03161e-16 0)
(3 -1.05865e-15 0)
(3 -5.47007e-16 0)
(3 -8.60007e-16 0)
(3 -1.50515e-15 0)
(3 -1.92959e-15 0)
(3 -2.13674e-15 0)
(3 -2.07859e-15 0)
(3 -1.47072e-15 0)
(3 7.64967e-16 0)
(3 1.72569e-15 0)
(3 3.20358e-15 0)
(3 3.25045e-15 0)
(3 3.07037e-15 0)
(3 2.85949e-15 0)
(3 3.17689e-15 0)
(3 4.96746e-15 0)
(3 5.80742e-15 0)
(3 5.81064e-15 0)
(3 4.53545e-15 0)
(3 -7.81505e-16 0)
(3 -2.35397e-15 0)
(3 -2.34604e-15 0)
(3 -2.15814e-15 0)
(3 -2.03231e-15 0)
(3 -2.23016e-15 0)
(3 -2.2128e-15 0)
(3 -2.18452e-15 0)
(3 -2.61145e-15 0)
(3 -3.2948e-15 0)
(3 -3.39982e-15 0)
(3 -3.13281e-15 0)
(3 -2.78029e-15 0)
(3 -2.14154e-15 0)
(3 -2.33033e-15 0)
(3 -2.98002e-15 0)
(3 -4.39875e-15 0)
(3 -5.97515e-15 0)
(3 -6.39877e-15 0)
(3 -7.45299e-15 0)
(3 -8.78507e-15 0)
(3 -8.16695e-15 0)
(3 -7.40623e-15 0)
(3 3.55653e-16 0)
(3 2.78507e-16 0)
(3 2.14371e-17 0)
(3 -4.10642e-16 0)
(3 -2.19581e-16 0)
(3 3.28233e-16 0)
(3 6.49149e-16 0)
(3 4.14742e-16 0)
(3 3.71676e-16 0)
(3 3.41038e-16 0)
(3 -3.27297e-16 0)
(3 -5.11092e-16 0)
(3 -8.88848e-16 0)
(3 -1.01775e-15 0)
(3 -7.39122e-16 0)
(3 -1.71185e-16 0)
(3 3.9606e-16 0)
(3 7.94644e-16 0)
(3 -4.57541e-16 0)
(3 -1.38015e-15 0)
(3 -1.99545e-15 0)
(3 -2.15944e-15 0)
(3 -2.21828e-15 0)
(3 -1.95663e-15 0)
(3 -2.82395e-15 0)
(3 -2.95055e-15 0)
(3 -2.3108e-15 0)
(3 -1.1241e-15 0)
(3 -5.60254e-16 0)
(3 -2.39615e-16 0)
(3 -4.61383e-16 0)
(3 -1.10814e-15 0)
(3 -1.25876e-15 0)
(3 -1.68267e-15 0)
(3 -2.38197e-15 0)
(3 -2.27672e-15 0)
(3 -2.53015e-15 0)
(3 -3.01564e-15 0)
(3 -3.21494e-15 0)
(3 -1.57415e-15 0)
(3 -8.53459e-16 0)
(3 -1.11321e-16 0)
(3 -6.30212e-16 0)
(3 -2.93403e-15 0)
(3 -3.70176e-15 0)
(3 -3.65411e-15 0)
(3 -3.64652e-15 0)
(3 -3.58186e-15 0)
(3 -3.62241e-15 0)
(3 -3.34198e-15 0)
(3 -2.60632e-15 0)
(3 -2.1277e-15 0)
(3 -1.96574e-15 0)
(3 -1.635e-15 0)
(3 -1.12555e-15 0)
(3 -8.84218e-16 0)
(3 -8.73324e-16 0)
(3 -6.19668e-16 0)
(3 -7.28046e-16 0)
(3 -7.77056e-16 0)
(3 -8.80954e-16 0)
(3 -9.80169e-16 0)
(3 -6.24994e-16 0)
(3 4.51783e-16 0)
(3 1.32935e-15 0)
(3 1.67666e-15 0)
(3 1.56691e-15 0)
(3 2.25355e-15 0)
(3 1.9536e-15 0)
(3 2.25354e-15 0)
(3 2.81281e-15 0)
(3 3.36543e-15 0)
(3 3.12766e-15 0)
(3 5.34582e-16 0)
(3 -1.30361e-16 0)
(3 -2.54632e-15 0)
(3 -3.20084e-15 0)
(3 -1.90843e-15 0)
(3 -1.6042e-15 0)
(3 -1.74343e-15 0)
(3 -2.25737e-15 0)
(3 -2.89086e-15 0)
(3 -2.37422e-15 0)
(3 -3.06683e-15 0)
(3 -2.69104e-15 0)
(3 -2.29211e-15 0)
(3 -2.01806e-15 0)
(3 -2.35647e-15 0)
(3 -2.06655e-15 0)
(3 -2.6208e-15 0)
(3 -2.17096e-15 0)
(3 -1.59821e-16 0)
(3 -1.46364e-16 0)
(3 -1.58253e-15 0)
(3 -4.36323e-15 0)
(3 -5.01828e-15 0)
(3 3.22184e-17 0)
(3 5.35628e-16 0)
(3 6.67314e-16 0)
(3 7.99608e-16 0)
(3 7.41288e-16 0)
(3 1.48422e-15 0)
(3 1.59696e-15 0)
(3 1.77727e-15 0)
(3 1.89679e-15 0)
(3 1.65908e-15 0)
(3 1.66561e-15 0)
(3 1.6224e-15 0)
(3 1.04956e-15 0)
(3 5.9427e-16 0)
(3 -3.08095e-17 0)
(3 8.70286e-17 0)
(3 3.03638e-16 0)
(3 4.53306e-16 0)
(3 2.00424e-16 0)
(3 -1.4182e-16 0)
(3 -5.73178e-16 0)
(3 -1.2344e-15 0)
(3 -2.22746e-15 0)
(3 -2.28963e-15 0)
(3 -1.99571e-15 0)
(3 -2.05051e-15 0)
(3 -1.55543e-15 0)
(3 -1.52759e-15 0)
(3 -9.61889e-16 0)
(3 3.53806e-16 0)
(3 1.64349e-15 0)
(3 1.27311e-15 0)
(3 -9.65897e-16 0)
(3 -1.45692e-15 0)
(3 -1.24416e-15 0)
(3 -6.9626e-16 0)
(3 -4.85067e-16 0)
(3 -7.67909e-16 0)
(3 -1.15309e-15 0)
(3 -1.1337e-15 0)
(3 -9.06906e-16 0)
(3 -1.19629e-15 0)
(3 -1.91476e-15 0)
(3 -1.8846e-15 0)
(3 -1.98959e-15 0)
(3 -2.42277e-15 0)
(3 -2.26229e-15 0)
(3 -2.09061e-15 0)
(3 -2.40005e-15 0)
(3 -2.54528e-15 0)
(3 -2.96105e-15 0)
(3 -2.93989e-15 0)
(3 -2.88691e-15 0)
(3 -2.18737e-15 0)
(3 -1.37011e-15 0)
(3 -2.04221e-15 0)
(3 -1.60688e-15 0)
(3 -1.13731e-15 0)
(3 1.59343e-17 0)
(3 4.38081e-16 0)
(3 2.9875e-16 0)
(3 -6.45885e-16 0)
(3 -9.93476e-16 0)
(3 3.89767e-16 0)
(3 1.52655e-15 0)
(3 2.10985e-15 0)
(3 2.59051e-15 0)
(3 2.73199e-15 0)
(3 2.65443e-15 0)
(3 1.40019e-15 0)
(3 3.13507e-16 0)
(3 -8.54673e-16 0)
(3 -1.35602e-15 0)
(3 -1.06257e-15 0)
(3 -8.84007e-16 0)
(3 -2.48961e-15 0)
(3 -1.30865e-15 0)
(3 6.35891e-16 0)
(3 -1.22674e-16 0)
(3 -3.33301e-16 0)
(3 -8.64077e-16 0)
(3 -6.26224e-16 0)
(3 -2.01853e-16 0)
(3 -2.50074e-16 0)
(3 -5.0661e-16 0)
(3 -1.30049e-15 0)
(3 -1.99285e-15 0)
(3 -2.19711e-15 0)
(3 -2.35129e-15 0)
(3 -1.85673e-15 0)
(3 6.50272e-16 0)
(3 1.83674e-15 0)
(3 2.36882e-15 0)
(3 3.08475e-15 0)
(3 7.46052e-16 0)
(3 -1.16928e-15 0)
(3 -2.53567e-16 0)
(3 2.59739e-17 0)
(3 2.95839e-16 0)
(3 7.53417e-16 0)
(3 8.93129e-16 0)
(3 8.59183e-16 0)
(3 8.22632e-16 0)
(3 2.4248e-15 0)
(3 3.58891e-15 0)
(3 3.68097e-15 0)
(3 2.92119e-15 0)
(3 1.4803e-15 0)
(3 1.31939e-15 0)
(3 1.80322e-15 0)
(3 1.26818e-15 0)
(3 4.5548e-16 0)
(3 5.9046e-16 0)
(3 9.47493e-16 0)
(3 1.50261e-15 0)
(3 1.39422e-15 0)
(3 1.14151e-15 0)
(3 -3.86335e-16 0)
(3 -1.97661e-15 0)
(3 -2.73107e-15 0)
(3 -2.47024e-15 0)
(3 -1.91608e-15 0)
(3 -1.30876e-15 0)
(3 -5.66731e-16 0)
(3 6.01899e-16 0)
(3 1.05107e-15 0)
(3 1.60578e-15 0)
(3 1.82256e-15 0)
(3 1.14915e-15 0)
(3 1.25511e-17 0)
(3 -8.80386e-16 0)
(3 -1.58708e-15 0)
(3 -1.64678e-15 0)
(3 -1.27189e-15 0)
(3 -1.20174e-15 0)
(3 -1.50535e-15 0)
(3 -1.81609e-15 0)
(3 -1.91327e-15 0)
(3 -1.26613e-15 0)
(3 -7.4582e-16 0)
(3 -6.32585e-16 0)
(3 -6.47926e-16 0)
(3 -4.41166e-16 0)
(3 -3.47742e-16 0)
(3 -1.03834e-15 0)
(3 -1.70593e-15 0)
(3 -2.90195e-15 0)
(3 -3.00059e-15 0)
(3 -2.71326e-15 0)
(3 -1.86814e-15 0)
(3 -1.34774e-15 0)
(3 -8.39804e-16 0)
(3 -1.00371e-15 0)
(3 -1.15523e-15 0)
(3 -1.14435e-15 0)
(3 -2.80552e-16 0)
(3 -2.95501e-16 0)
(3 4.31436e-16 0)
(3 1.01407e-15 0)
(3 2.22291e-15 0)
(3 2.98583e-15 0)
(3 3.43259e-15 0)
(3 2.39577e-15 0)
(3 2.48808e-15 0)
(3 2.99796e-15 0)
(3 1.13545e-15 0)
(3 -2.56333e-15 0)
(3 -4.43316e-15 0)
(3 -2.57627e-15 0)
(3 -2.77323e-16 0)
(3 2.11152e-15 0)
(3 2.55051e-15 0)
(3 2.07166e-15 0)
(3 -4.56137e-16 0)
(3 -9.59446e-16 0)
(3 -7.08369e-16 0)
(3 1.09918e-15 0)
(3 3.69153e-15 0)
(3 3.00232e-15 0)
(3 2.37481e-15 0)
(3 2.32579e-15 0)
(3 7.24503e-16 0)
(3 -2.16318e-16 0)
(3 6.03243e-16 0)
(3 2.59338e-16 0)
(3 4.99911e-18 0)
(3 -4.95544e-16 0)
(3 -3.04319e-16 0)
(3 1.0403e-15 0)
(3 2.02292e-15 0)
(3 1.69246e-15 0)
(3 1.29192e-15 0)
(3 -4.85967e-17 0)
(3 -4.96342e-17 0)
(3 2.82168e-16 0)
(3 5.95853e-16 0)
(3 6.97605e-16 0)
(3 6.98428e-16 0)
(3 4.83046e-16 0)
(3 7.54888e-16 0)
(3 7.8303e-16 0)
(3 1.37874e-15 0)
(3 1.56123e-15 0)
(3 1.5049e-15 0)
(3 2.16594e-15 0)
(3 2.1255e-15 0)
(3 1.44337e-15 0)
(3 7.90121e-16 0)
(3 8.26296e-16 0)
(3 7.61726e-16 0)
(3 1.16826e-15 0)
(3 1.55734e-15 0)
(3 1.23718e-15 0)
(3 3.32635e-16 0)
(3 -1.27715e-15 0)
(3 -1.33633e-15 0)
(3 -1.47269e-15 0)
(3 -1.6699e-15 0)
(3 -1.70819e-15 0)
(3 -6.35982e-16 0)
(3 6.91483e-16 0)
(3 1.12597e-15 0)
(3 7.15801e-16 0)
(3 1.39072e-15 0)
(3 1.55447e-15 0)
(3 1.61206e-16 0)
(3 -7.41664e-16 0)
(3 -2.34567e-15 0)
(3 -3.53376e-15 0)
(3 -3.11714e-15 0)
(3 -3.1709e-15 0)
(3 -3.83393e-15 0)
(3 -3.83486e-15 0)
(3 -2.32666e-15 0)
(3 -2.42818e-15 0)
(3 -1.98657e-15 0)
(3 -1.7866e-15 0)
(3 -1.19008e-15 0)
(3 -1.44098e-15 0)
(3 -1.42159e-15 0)
(3 -6.33479e-16 0)
(3 -3.61645e-16 0)
(3 -7.51965e-16 0)
(3 7.32411e-16 0)
(3 1.30406e-15 0)
(3 1.28971e-16 0)
(3 -1.3183e-15 0)
(3 -1.92349e-15 0)
(3 -2.06739e-15 0)
(3 -2.92605e-15 0)
(3 -3.06353e-15 0)
(3 -1.51276e-15 0)
(3 3.5612e-16 0)
(3 2.28588e-15 0)
(3 2.77077e-15 0)
(3 3.09177e-15 0)
(3 3.2382e-15 0)
(3 4.43588e-15 0)
(3 3.40824e-15 0)
(3 3.16279e-16 0)
(3 -5.76722e-16 0)
(3 -7.63759e-16 0)
(3 -1.99046e-15 0)
(3 -3.82023e-15 0)
(3 -4.32791e-15 0)
(3 -1.34716e-15 0)
(3 3.12689e-16 0)
(3 1.07438e-15 0)
(3 8.67292e-16 0)
(3 -2.97483e-17 0)
(3 -1.73354e-16 0)
(3 -4.55046e-17 0)
(3 1.08252e-15 0)
(3 2.13051e-15 0)
(3 2.00177e-15 0)
(3 1.70698e-15 0)
(3 2.07106e-15 0)
(3 2.34863e-15 0)
(3 2.38709e-15 0)
(3 1.88265e-15 0)
(3 5.71962e-16 0)
(3 -9.0389e-16 0)
(3 -1.53119e-15 0)
(3 -8.27925e-16 0)
(3 -6.18064e-16 0)
(3 6.39496e-16 0)
(3 1.89884e-15 0)
(3 2.03094e-15 0)
(3 -9.169e-17 0)
(3 -2.18582e-16 0)
(3 -2.44532e-17 0)
(3 -5.64015e-17 0)
(3 -3.65007e-16 0)
(3 -4.27034e-16 0)
(3 -5.83576e-16 0)
(3 -9.35931e-16 0)
(3 -1.73879e-15 0)
(3 -2.07593e-15 0)
(3 -1.22592e-15 0)
(3 -6.36966e-16 0)
(3 4.33958e-16 0)
(3 1.51466e-15 0)
(3 1.84765e-15 0)
(3 1.73904e-15 0)
(3 8.81183e-16 0)
(3 -2.60859e-16 0)
(3 -8.8192e-16 0)
(3 -8.59384e-16 0)
(3 -5.84296e-16 0)
(3 -5.28684e-16 0)
(3 -6.473e-16 0)
(3 -9.09548e-16 0)
(3 -9.75844e-16 0)
(3 -1.19971e-15 0)
(3 -9.0287e-16 0)
(3 -2.1563e-16 0)
(3 1.27505e-16 0)
(3 3.96023e-16 0)
(3 4.87787e-16 0)
(3 -2.47893e-16 0)
(3 -4.95526e-16 0)
(3 -7.90297e-16 0)
(3 -6.93507e-16 0)
(3 -1.36263e-15 0)
(3 -3.80965e-15 0)
(3 -5.25733e-15 0)
(3 -4.93852e-15 0)
(3 -4.23813e-15 0)
(3 -3.87328e-15 0)
(3 -3.64568e-15 0)
(3 -3.76642e-15 0)
(3 -3.00905e-15 0)
(3 -1.79583e-15 0)
(3 -1.53676e-15 0)
(3 -1.92403e-15 0)
(3 -1.96647e-15 0)
(3 -4.03421e-16 0)
(3 3.16892e-15 0)
(3 3.56618e-15 0)
(3 3.21567e-15 0)
(3 2.01928e-15 0)
(3 2.03931e-15 0)
(3 2.25045e-15 0)
(3 1.5841e-17 0)
(3 -9.68482e-16 0)
(3 -1.1431e-15 0)
(3 -1.21635e-15 0)
(3 -1.07322e-15 0)
(3 -4.9363e-16 0)
(3 2.08345e-15 0)
(3 3.05236e-15 0)
(3 3.316e-15 0)
(3 2.19375e-15 0)
(3 1.29724e-15 0)
(3 9.61716e-16 0)
(3 -1.40441e-15 0)
(3 -2.75697e-15 0)
(3 -2.89015e-15 0)
(3 -1.55978e-15 0)
(3 -2.07416e-16 0)
(3 6.03329e-16 0)
(3 1.15989e-15 0)
(3 1.59339e-15 0)
(3 1.42996e-15 0)
(3 9.76035e-16 0)
(3 5.94904e-16 0)
(3 -2.66765e-16 0)
(3 -2.2139e-16 0)
(3 -1.95709e-16 0)
(3 3.74136e-16 0)
(3 2.48036e-15 0)
(3 3.94361e-15 0)
(3 3.46054e-15 0)
(3 2.24342e-15 0)
(3 2.07003e-15 0)
(3 1.76965e-15 0)
(3 7.8152e-16 0)
(3 4.34448e-16 0)
(3 5.56542e-16 0)
(3 -5.60399e-17 0)
(3 -2.52122e-16 0)
(3 9.05347e-16 0)
(3 1.90883e-15 0)
(3 1.82594e-15 0)
(3 8.17901e-18 0)
(3 2.69061e-16 0)
(3 1.09637e-16 0)
(3 -5.67337e-17 0)
(3 -2.43191e-16 0)
(3 -4.48754e-16 0)
(3 -5.49043e-16 0)
(3 -7.95935e-16 0)
(3 -7.11982e-16 0)
(3 -5.50834e-16 0)
(3 -7.56951e-16 0)
(3 -1.40248e-16 0)
(3 -1.00982e-17 0)
(3 7.41134e-16 0)
(3 1.06149e-15 0)
(3 9.70509e-16 0)
(3 8.02489e-17 0)
(3 -7.36276e-16 0)
(3 -1.04597e-15 0)
(3 -1.22298e-15 0)
(3 -1.22279e-15 0)
(3 -1.00585e-15 0)
(3 -9.25664e-16 0)
(3 -1.18303e-15 0)
(3 -1.42062e-15 0)
(3 -5.94324e-16 0)
(3 1.23387e-17 0)
(3 1.11428e-18 0)
(3 -4.80156e-16 0)
(3 -3.23672e-16 0)
(3 1.17596e-16 0)
(3 -5.3635e-16 0)
(3 -6.31427e-16 0)
(3 -2.88972e-16 0)
(3 -3.22212e-16 0)
(3 -6.56224e-16 0)
(3 -1.98252e-15 0)
(3 -3.83569e-15 0)
(3 -4.34768e-15 0)
(3 -3.80593e-15 0)
(3 -3.46553e-15 0)
(3 -3.11187e-15 0)
(3 -2.90984e-15 0)
(3 -3.27333e-15 0)
(3 -3.35331e-15 0)
(3 -3.49458e-15 0)
(3 -3.49996e-15 0)
(3 -2.55543e-15 0)
(3 -1.30195e-15 0)
(3 7.65025e-16 0)
(3 1.96068e-15 0)
(3 1.99582e-15 0)
(3 1.90805e-15 0)
(3 2.99096e-15 0)
(3 3.51577e-15 0)
(3 3.61929e-15 0)
(3 3.25237e-15 0)
(3 2.54613e-15 0)
(3 1.63953e-15 0)
(3 6.6956e-16 0)
(3 -5.86762e-16 0)
(3 8.24186e-16 0)
(3 1.47491e-15 0)
(3 1.3001e-15 0)
(3 -1.78197e-15 0)
(3 -3.13632e-15 0)
(3 -3.0938e-15 0)
(3 -2.00199e-15 0)
(3 -2.07852e-15 0)
(3 -2.38246e-15 0)
(3 -1.04139e-15 0)
(3 1.75073e-15 0)
(3 2.57205e-15 0)
(3 2.17733e-15 0)
(3 2.33027e-15 0)
(3 1.91034e-15 0)
(3 1.02789e-15 0)
(3 8.27453e-16 0)
(3 7.58514e-16 0)
(3 1.57618e-15 0)
(3 1.53776e-15 0)
(3 1.41544e-15 0)
(3 2.25635e-15 0)
(3 3.07262e-15 0)
(3 2.86621e-15 0)
(3 1.54076e-15 0)
(3 6.93597e-16 0)
(3 4.31388e-16 0)
(3 4.01505e-16 0)
(3 4.48195e-16 0)
(3 4.03378e-16 0)
(3 -5.18234e-17 0)
(3 7.08517e-16 0)
(3 1.00145e-15 0)
(3 1.21823e-15 0)
(3 1.60259e-15 0)
(3 1.78483e-16 0)
(3 -3.06527e-17 0)
(3 -4.64155e-16 0)
(3 -7.65936e-16 0)
(3 -5.60047e-16 0)
(3 -8.52726e-16 0)
(3 -1.07658e-15 0)
(3 -1.45988e-15 0)
(3 -8.5647e-16 0)
(3 6.82464e-16 0)
(3 1.47785e-15 0)
(3 1.20925e-15 0)
(3 6.3652e-16 0)
(3 -3.28978e-16 0)
(3 3.31805e-17 0)
(3 1.72923e-16 0)
(3 1.44962e-16 0)
(3 3.34013e-16 0)
(3 -7.07511e-17 0)
(3 1.66341e-16 0)
(3 -7.60093e-18 0)
(3 1.16415e-17 0)
(3 4.15594e-16 0)
(3 7.09903e-16 0)
(3 1.34486e-15 0)
(3 2.00197e-15 0)
(3 2.1044e-15 0)
(3 1.22719e-15 0)
(3 4.82803e-16 0)
(3 -6.39922e-17 0)
(3 -3.46058e-16 0)
(3 -4.90367e-16 0)
(3 -2.23749e-16 0)
(3 2.69711e-16 0)
(3 4.86496e-16 0)
(3 6.63658e-17 0)
(3 -3.96601e-16 0)
(3 -3.66926e-16 0)
(3 -6.8038e-16 0)
(3 -1.43617e-15 0)
(3 -1.88994e-15 0)
(3 -2.43704e-15 0)
(3 -2.75857e-15 0)
(3 -2.93923e-15 0)
(3 -3.95825e-15 0)
(3 -2.99296e-15 0)
(3 -2.68101e-15 0)
(3 -1.36718e-15 0)
(3 -2.39836e-16 0)
(3 1.47847e-16 0)
(3 4.68576e-16 0)
(3 9.52716e-16 0)
(3 3.00682e-15 0)
(3 5.04112e-15 0)
(3 5.47918e-15 0)
(3 6.32888e-15 0)
(3 6.26079e-15 0)
(3 5.53854e-15 0)
(3 4.46211e-15 0)
(3 3.8382e-15 0)
(3 9.29117e-16 0)
(3 1.12439e-16 0)
(3 -1.71939e-15 0)
(3 -2.99956e-15 0)
(3 -3.68208e-15 0)
(3 -3.65347e-15 0)
(3 -3.19412e-15 0)
(3 -2.48461e-15 0)
(3 -6.52726e-16 0)
(3 1.05081e-15 0)
(3 2.18634e-15 0)
(3 2.30102e-15 0)
(3 2.1625e-15 0)
(3 2.21805e-15 0)
(3 1.37096e-15 0)
(3 6.1569e-16 0)
(3 1.08639e-15 0)
(3 1.219e-15 0)
(3 2.50863e-15 0)
(3 2.55308e-15 0)
(3 2.14405e-15 0)
(3 8.54004e-16 0)
(3 7.71624e-16 0)
(3 -1.53267e-16 0)
(3 -1.06147e-15 0)
(3 -8.39934e-16 0)
(3 -1.04036e-15 0)
(3 -1.73447e-15 0)
(3 -1.14942e-15 0)
(3 -4.37561e-16 0)
(3 -2.56877e-16 0)
(3 2.8732e-16 0)
(3 3.00891e-16 0)
(3 1.33411e-15 0)
(3 1.67576e-15 0)
(3 1.42792e-15 0)
(3 -1.80168e-16 0)
(3 -4.79824e-16 0)
(3 -6.8826e-16 0)
(3 -9.13895e-16 0)
(3 -9.43976e-16 0)
(3 -7.52192e-16 0)
(3 -3.71024e-16 0)
(3 -2.307e-17 0)
(3 6.3092e-16 0)
(3 1.09079e-15 0)
(3 1.84856e-15 0)
(3 9.27969e-16 0)
(3 8.42727e-17 0)
(3 -6.98969e-16 0)
(3 -9.54771e-16 0)
(3 -9.65906e-16 0)
(3 -6.6306e-16 0)
(3 -1.64511e-16 0)
(3 -1.53705e-16 0)
(3 -5.66905e-17 0)
(3 9.50955e-16 0)
(3 1.78599e-15 0)
(3 1.87745e-15 0)
(3 1.99652e-15 0)
(3 2.30635e-15 0)
(3 2.24506e-15 0)
(3 2.26483e-15 0)
(3 2.37621e-15 0)
(3 2.33816e-15 0)
(3 1.43751e-15 0)
(3 2.77991e-16 0)
(3 3.89524e-16 0)
(3 1.02267e-15 0)
(3 1.14561e-15 0)
(3 1.18426e-15 0)
(3 1.41233e-15 0)
(3 2.08388e-15 0)
(3 2.69088e-15 0)
(3 2.70838e-15 0)
(3 9.56371e-16 0)
(3 -1.67229e-16 0)
(3 -1.45277e-15 0)
(3 -1.27322e-15 0)
(3 -1.24578e-16 0)
(3 7.62623e-16 0)
(3 1.43177e-15 0)
(3 1.35744e-15 0)
(3 1.07557e-15 0)
(3 4.34388e-16 0)
(3 1.32816e-16 0)
(3 4.15256e-16 0)
(3 1.1251e-15 0)
(3 2.83506e-15 0)
(3 4.8012e-15 0)
(3 5.93463e-15 0)
(3 6.11442e-15 0)
(3 6.43088e-15 0)
(3 6.21587e-15 0)
(3 4.91263e-15 0)
(3 3.69654e-15 0)
(3 1.5426e-15 0)
(3 2.13344e-16 0)
(3 -2.02762e-15 0)
(3 -3.3363e-15 0)
(3 -3.34698e-15 0)
(3 -2.98148e-15 0)
(3 -1.17789e-15 0)
(3 -1.0731e-15 0)
(3 -5.13511e-16 0)
(3 -1.52737e-16 0)
(3 -2.98914e-16 0)
(3 -3.93508e-16 0)
(3 -2.38707e-16 0)
(3 8.74642e-16 0)
(3 1.52936e-15 0)
(3 1.82139e-15 0)
(3 1.98391e-15 0)
(3 2.06969e-15 0)
(3 2.01257e-15 0)
(3 4.59705e-16 0)
(3 9.08292e-17 0)
(3 8.03974e-16 0)
(3 1.72627e-15 0)
(3 1.24185e-15 0)
(3 5.94496e-16 0)
(3 2.72299e-18 0)
(3 -8.34975e-16 0)
(3 -1.40455e-15 0)
(3 -1.20121e-15 0)
(3 -3.22045e-16 0)
(3 9.91178e-16 0)
(3 1.06125e-15 0)
(3 5.10888e-16 0)
(3 1.10801e-15 0)
(3 2.02025e-15 0)
(3 1.81374e-15 0)
(3 -8.1433e-17 0)
(3 1.05858e-16 0)
(3 2.05475e-16 0)
(3 4.13261e-16 0)
(3 3.83884e-16 0)
(3 1.05426e-15 0)
(3 1.09808e-15 0)
(3 7.75826e-16 0)
(3 1.42679e-15 0)
(3 1.158e-15 0)
(3 4.44776e-17 0)
(3 -4.16149e-16 0)
(3 -9.27199e-16 0)
(3 -1.31546e-15 0)
(3 -1.39703e-15 0)
(3 -8.84281e-16 0)
(3 -6.62077e-16 0)
(3 -4.04823e-16 0)
(3 4.48042e-16 0)
(3 1.54721e-15 0)
(3 1.66257e-15 0)
(3 1.7125e-15 0)
(3 2.07285e-15 0)
(3 2.98461e-15 0)
(3 3.06821e-15 0)
(3 2.61308e-15 0)
(3 1.36803e-15 0)
(3 1.36306e-15 0)
(3 2.94909e-15 0)
(3 3.08817e-15 0)
(3 3.41347e-15 0)
(3 3.12336e-15 0)
(3 3.15711e-15 0)
(3 3.28756e-15 0)
(3 3.08036e-15 0)
(3 2.5122e-15 0)
(3 2.61575e-15 0)
(3 3.14019e-15 0)
(3 2.88298e-15 0)
(3 1.63062e-15 0)
(3 1.91697e-15 0)
(3 3.39353e-15 0)
(3 4.24138e-15 0)
(3 4.77514e-15 0)
(3 5.1015e-15 0)
(3 2.88487e-15 0)
(3 1.69605e-15 0)
(3 2.06992e-16 0)
(3 -1.79678e-15 0)
(3 -8.49841e-16 0)
(3 6.89642e-16 0)
(3 2.2879e-15 0)
(3 2.33677e-15 0)
(3 3.49046e-16 0)
(3 6.1924e-16 0)
(3 2.87015e-15 0)
(3 3.04724e-15 0)
(3 3.13249e-15 0)
(3 2.9502e-15 0)
(3 1.5337e-15 0)
(3 3.97066e-16 0)
(3 -9.02805e-16 0)
(3 -1.36306e-15 0)
(3 -1.60671e-15 0)
(3 -1.80167e-15 0)
(3 -3.33307e-16 0)
(3 1.10584e-15 0)
(3 1.0874e-15 0)
(3 9.00957e-16 0)
(3 -1.94691e-16 0)
(3 -1.57588e-15 0)
(3 -3.00883e-15 0)
(3 -2.77156e-15 0)
(3 -1.91566e-15 0)
(3 5.53833e-16 0)
(3 7.10451e-16 0)
(3 -2.09781e-16 0)
(3 1.05547e-16 0)
(3 1.03794e-15 0)
(3 2.60416e-15 0)
(3 3.41005e-15 0)
(3 3.70861e-15 0)
(3 3.37101e-15 0)
(3 3.01958e-15 0)
(3 4.44716e-15 0)
(3 3.31432e-15 0)
(3 1.09763e-15 0)
(3 -1.4729e-16 0)
(3 1.99337e-16 0)
(3 3.3889e-16 0)
(3 1.05795e-15 0)
(3 9.72762e-16 0)
(3 3.3647e-16 0)
(3 -3.76534e-16 0)
(3 5.20106e-16 0)
(3 2.28401e-15 0)
(3 1.17637e-16 0)
(3 5.05711e-16 0)
(3 8.69767e-18 0)
(3 3.68017e-16 0)
(3 4.32479e-16 0)
(3 1.0869e-16 0)
(3 -2.92156e-16 0)
(3 -8.3346e-16 0)
(3 -1.16722e-15 0)
(3 -1.32607e-15 0)
(3 -1.44251e-15 0)
(3 -1.41893e-15 0)
(3 -1.20218e-15 0)
(3 -3.73937e-16 0)
(3 1.56022e-16 0)
(3 5.10352e-16 0)
(3 4.63622e-16 0)
(3 1.05973e-15 0)
(3 1.88265e-15 0)
(3 2.16347e-15 0)
(3 1.25735e-15 0)
(3 1.08391e-15 0)
(3 2.43696e-15 0)
(3 2.67642e-15 0)
(3 1.96779e-15 0)
(3 9.61595e-16 0)
(3 6.14216e-16 0)
(3 5.18418e-16 0)
(3 1.2041e-15 0)
(3 2.67086e-15 0)
(3 4.71805e-15 0)
(3 4.38973e-15 0)
(3 3.1013e-15 0)
(3 2.93646e-15 0)
(3 2.82248e-15 0)
(3 2.94869e-15 0)
(3 3.53572e-15 0)
(3 5.40415e-15 0)
(3 5.40704e-15 0)
(3 5.40465e-15 0)
(3 5.72888e-15 0)
(3 5.9283e-15 0)
(3 5.77154e-15 0)
(3 5.53139e-15 0)
(3 4.1483e-15 0)
(3 3.52459e-15 0)
(3 3.23195e-15 0)
(3 2.14559e-15 0)
(3 3.58708e-15 0)
(3 3.40921e-15 0)
(3 3.59508e-15 0)
(3 4.10186e-15 0)
(3 1.77685e-15 0)
(3 -1.94771e-15 0)