/*--------------------------------*- C++ -*----------------------------------*\
  =========                 |
  \\      /  F ield         | OpenFOAM: The Open Source CFD Toolbox
   \\    /   O peration     | Website:  https://openfoam.org
    \\  /    A nd           | Version:  7
     \\/     M anipulation  |
\*---------------------------------------------------------------------------*/
FoamFile
{
    version     2.0;
    format      ascii;
    class       volVectorField;
    location    "2.1";
    object      U;
}
// * * * * * * * * * * * * * * * * * * * * * * * * * * * * * * * * * * * * * //

dimensions      [0 1 -1 0 0 0 0];

internalField   nonuniform List<vector> 
73728
(
(3 1.4126e-17 0)
(3 -1.05797e-16 0)
(3 -2.186e-16 0)
(3 -3.5332e-16 0)
(3 -4.34633e-16 0)
(3 6.13884e-17 0)
(3 4.19096e-16 0)
(3 6.19001e-16 0)
(3 9.19844e-16 0)
(3 9.4829e-16 0)
(3 9.01724e-16 0)
(3 1.19166e-15 0)
(3 1.27171e-15 0)
(3 1.51831e-15 0)
(3 1.4984e-15 0)
(3 5.096e-17 0)
(3 -3.47509e-16 0)
(3 -6.58265e-16 0)
(3 -5.40175e-16 0)
(3 -9.00694e-16 0)
(3 -1.36368e-15 0)
(3 -1.03185e-15 0)
(3 -3.53682e-16 0)
(3 -1.22106e-17 0)
(3 -1.36979e-17 0)
(3 -2.04445e-16 0)
(3 -8.4204e-16 0)
(3 -9.44011e-16 0)
(3 -1.33678e-15 0)
(3 -1.57512e-15 0)
(3 -1.5182e-15 0)
(3 -1.45981e-15 0)
(3 -1.50921e-15 0)
(3 -1.43779e-15 0)
(3 -5.69536e-16 0)
(3 -1.47017e-16 0)
(3 1.13694e-15 0)
(3 1.67218e-15 0)
(3 1.45126e-15 0)
(3 1.21616e-15 0)
(3 4.1486e-16 0)
(3 -5.95805e-16 0)
(3 -5.28259e-16 0)
(3 -7.07521e-16 0)
(3 -4.12137e-16 0)
(3 -2.26115e-16 0)
(3 3.49988e-17 0)
(3 2.78732e-16 0)
(3 3.30267e-16 0)
(3 2.0652e-16 0)
(3 9.79414e-16 0)
(3 1.46262e-15 0)
(3 1.65949e-15 0)
(3 1.70532e-15 0)
(3 1.2022e-15 0)
(3 1.05293e-15 0)
(3 1.7062e-15 0)
(3 1.22286e-15 0)
(3 9.92307e-16 0)
(3 8.15292e-16 0)
(3 7.44264e-16 0)
(3 1.237e-15 0)
(3 2.06836e-15 0)
(3 1.94468e-15 0)
(3 2.26639e-15 0)
(3 3.26668e-15 0)
(3 1.17469e-15 0)
(3 2.29295e-16 0)
(3 -5.3517e-17 0)
(3 4.34645e-18 0)
(3 2.36768e-16 0)
(3 5.886e-16 0)
(3 6.8781e-16 0)
(3 -3.39761e-16 0)
(3 -6.14125e-16 0)
(3 -1.28176e-16 0)
(3 8.02322e-16 0)
(3 1.1691e-15 0)
(3 1.105e-15 0)
(3 1.64244e-15 0)
(3 2.40928e-15 0)
(3 2.34583e-15 0)
(3 2.40143e-15 0)
(3 1.55984e-15 0)
(3 7.90778e-16 0)
(3 9.49539e-16 0)
(3 1.05028e-15 0)
(3 4.91466e-16 0)
(3 -7.15576e-16 0)
(3 -7.96489e-16 0)
(3 -7.14944e-16 0)
(3 -7.18678e-16 0)
(3 -5.21411e-16 0)
(3 -3.5055e-16 0)
(3 4.01625e-17 0)
(3 1.5478e-16 0)
(3 7.16211e-17 0)
(3 6.45573e-17 0)
(3 7.68055e-17 0)
(3 -2.24359e-16 0)
(3 -2.76859e-16 0)
(3 3.01225e-16 0)
(3 7.38093e-16 0)
(3 9.46483e-16 0)
(3 1.51563e-16 0)
(3 -5.78609e-17 0)
(3 6.52622e-16 0)
(3 1.14183e-15 0)
(3 1.89395e-15 0)
(3 2.19603e-15 0)
(3 1.87619e-15 0)
(3 -8.07558e-16 0)
(3 -2.26079e-15 0)
(3 -1.71475e-15 0)
(3 -8.50519e-16 0)
(3 -1.48156e-15 0)
(3 -1.66357e-15 0)
(3 -1.84733e-15 0)
(3 -7.56535e-16 0)
(3 -2.3816e-16 0)
(3 -6.23507e-16 0)
(3 -6.57429e-16 0)
(3 -8.30918e-16 0)
(3 -1.30374e-15 0)
(3 -1.93233e-15 0)
(3 -2.36932e-15 0)
(3 -1.5862e-15 0)
(3 -1.06538e-15 0)
(3 -1.15708e-15 0)
(3 -1.33923e-15 0)
(3 -1.14743e-15 0)
(3 -8.74586e-16 0)
(3 6.30773e-16 0)
(3 1.12089e-15 0)
(3 1.09503e-15 0)
(3 1.40337e-15 0)
(3 5.21576e-16 0)
(3 -1.82224e-15 0)
(3 -1.98064e-15 0)
(3 -1.11556e-15 0)
(3 -9.83185e-16 0)
(3 -8.57385e-16 0)
(3 1.17073e-16 0)
(3 5.6777e-16 0)
(3 6.22725e-16 0)
(3 9.9455e-16 0)
(3 2.28469e-15 0)
(3 2.41829e-15 0)
(3 2.36225e-15 0)
(3 2.07842e-15 0)
(3 7.1525e-16 0)
(3 4.86915e-16 0)
(3 9.06717e-16 0)
(3 8.34699e-16 0)
(3 8.3379e-16 0)
(3 8.35027e-16 0)
(3 2.00041e-15 0)
(3 1.53628e-15 0)
(3 2.16104e-15 0)
(3 2.65243e-15 0)
(3 3.13178e-15 0)
(3 3.45241e-15 0)
(3 2.07598e-15 0)
(3 -8.78513e-16 0)
(3 -2.47933e-15 0)
(3 -2.25012e-15 0)
(3 -1.86583e-15 0)
(3 -1.97565e-15 0)
(3 -1.66986e-15 0)
(3 -9.54846e-16 0)
(3 -1.0064e-15 0)
(3 -7.52904e-16 0)
(3 1.66932e-15 0)
(3 3.11523e-15 0)
(3 2.69039e-15 0)
(3 2.94982e-15 0)
(3 2.24447e-15 0)
(3 1.48374e-15 0)
(3 1.29475e-15 0)
(3 1.29416e-15 0)
(3 9.87938e-16 0)
(3 6.42647e-16 0)
(3 5.8105e-16 0)
(3 -3.19503e-17 0)
(3 -6.55575e-16 0)
(3 -8.4758e-16 0)
(3 -1.03803e-15 0)
(3 -1.0413e-15 0)
(3 -1.09163e-15 0)
(3 -6.95213e-16 0)
(3 -1.47228e-16 0)
(3 -8.84546e-16 0)
(3 -1.57837e-17 0)
(3 4.1825e-16 0)
(3 1.13722e-15 0)
(3 1.35395e-15 0)
(3 4.57115e-16 0)
(3 3.67496e-16 0)
(3 6.11731e-16 0)
(3 -5.83328e-17 0)
(3 -9.51225e-16 0)
(3 -6.82082e-16 0)
(3 -8.41354e-16 0)
(3 -5.33095e-16 0)
(3 -4.05528e-16 0)
(3 -2.89393e-16 0)
(3 -1.39449e-16 0)
(3 -5.1636e-16 0)
(3 -5.7308e-16 0)
(3 -6.80574e-16 0)
(3 -4.21322e-16 0)
(3 -3.92923e-16 0)
(3 -1.59404e-15 0)
(3 -1.57435e-15 0)
(3 -1.09872e-15 0)
(3 -1.51079e-15 0)
(3 -2.17408e-15 0)
(3 -2.28957e-15 0)
(3 -9.35951e-16 0)
(3 -1.43828e-15 0)
(3 -1.85727e-15 0)
(3 -1.83944e-15 0)
(3 -2.40902e-15 0)
(3 -2.43121e-15 0)
(3 -1.70116e-15 0)
(3 -1.81177e-15 0)
(3 -2.35466e-15 0)
(3 -2.91614e-15 0)
(3 -1.24385e-15 0)
(3 7.71909e-17 0)
(3 1.79685e-16 0)
(3 5.99458e-16 0)
(3 9.59654e-16 0)
(3 4.01801e-16 0)
(3 -2.74825e-17 0)
(3 5.40795e-16 0)
(3 9.36195e-16 0)
(3 1.32604e-15 0)
(3 1.36476e-15 0)
(3 1.84423e-15 0)
(3 2.19665e-15 0)
(3 2.51193e-15 0)
(3 2.19341e-15 0)
(3 1.41774e-15 0)
(3 4.93938e-16 0)
(3 3.98656e-16 0)
(3 3.90465e-16 0)
(3 2.16003e-16 0)
(3 -1.56379e-16 0)
(3 -1.00979e-16 0)
(3 3.5043e-16 0)
(3 1.04295e-15 0)
(3 1.26722e-15 0)
(3 1.31729e-15 0)
(3 1.61828e-15 0)
(3 1.37062e-15 0)
(3 1.95885e-15 0)
(3 1.75951e-15 0)
(3 1.48856e-15 0)
(3 7.90697e-16 0)
(3 2.44437e-16 0)
(3 -8.83552e-17 0)
(3 -1.25028e-15 0)
(3 -2.1223e-15 0)
(3 -1.48584e-15 0)
(3 -3.35277e-16 0)
(3 -2.27505e-16 0)
(3 -6.23262e-16 0)
(3 -5.28011e-16 0)
(3 5.33376e-16 0)
(3 1.31494e-15 0)
(3 1.678e-15 0)
(3 1.10202e-15 0)
(3 6.44668e-17 0)
(3 -6.46029e-16 0)
(3 3.22976e-16 0)
(3 1.15145e-15 0)
(3 4.35982e-16 0)
(3 -5.05327e-17 0)
(3 1.02703e-16 0)
(3 7.5131e-16 0)
(3 6.9406e-16 0)
(3 4.68016e-16 0)
(3 6.41621e-16 0)
(3 -3.4922e-16 0)
(3 -1.0805e-15 0)
(3 -1.78611e-15 0)
(3 -2.66364e-15 0)
(3 -1.60148e-17 0)
(3 2.96655e-16 0)
(3 5.64796e-16 0)
(3 7.58679e-16 0)
(3 8.0282e-16 0)
(3 -5.03652e-16 0)
(3 -8.95119e-16 0)
(3 -1.41471e-15 0)
(3 -9.75726e-16 0)
(3 -6.84575e-16 0)
(3 -6.50124e-16 0)
(3 -7.2469e-16 0)
(3 -1.07034e-15 0)
(3 -9.85056e-16 0)
(3 -5.59662e-16 0)
(3 5.84772e-16 0)
(3 7.93484e-16 0)
(3 -2.12535e-16 0)
(3 -4.14288e-16 0)
(3 -1.74612e-16 0)
(3 -1.63298e-15 0)
(3 -2.40427e-15 0)
(3 -2.47686e-15 0)
(3 -2.88713e-15 0)
(3 -2.73141e-15 0)
(3 -1.95806e-15 0)
(3 -1.58228e-15 0)
(3 -7.17175e-16 0)
(3 9.6293e-18 0)
(3 1.71453e-16 0)
(3 -8.13006e-16 0)
(3 -1.00757e-15 0)
(3 -8.62335e-16 0)
(3 -1.5204e-15 0)
(3 -2.13581e-15 0)
(3 -3.08403e-15 0)
(3 -3.06569e-15 0)
(3 -1.7512e-15 0)
(3 -6.66033e-16 0)
(3 -3.89041e-16 0)
(3 -5.22189e-16 0)
(3 -1.89569e-16 0)
(3 3.02201e-16 0)
(3 8.80125e-16 0)
(3 1.92985e-15 0)
(3 1.9524e-15 0)
(3 1.54657e-15 0)
(3 1.84054e-15 0)
(3 1.81081e-15 0)
(3 1.85445e-15 0)
(3 2.11376e-15 0)
(3 2.17887e-15 0)
(3 8.61794e-16 0)
(3 -2.10647e-16 0)
(3 -1.96942e-16 0)
(3 5.49192e-17 0)
(3 -1.67637e-16 0)
(3 1.21521e-16 0)
(3 6.51933e-16 0)
(3 1.07535e-15 0)
(3 1.25307e-15 0)
(3 1.38624e-15 0)
(3 1.04309e-15 0)
(3 1.16096e-15 0)
(3 1.11062e-15 0)
(3 1.10469e-15 0)
(3 8.58859e-16 0)
(3 9.36152e-16 0)
(3 1.44449e-15 0)
(3 1.40312e-15 0)
(3 1.27741e-15 0)
(3 6.4332e-16 0)
(3 -2.99955e-16 0)
(3 -2.38308e-16 0)
(3 -3.69224e-16 0)
(3 -1.0455e-15 0)
(3 -2.67112e-15 0)
(3 -2.52338e-15 0)
(3 -1.5439e-15 0)
(3 -4.48967e-16 0)
(3 -7.34999e-16 0)
(3 -1.19388e-15 0)
(3 -1.18924e-15 0)
(3 -9.37163e-16 0)
(3 -7.48316e-16 0)
(3 -4.01721e-16 0)
(3 1.34552e-16 0)
(3 1.5993e-16 0)
(3 6.3786e-16 0)
(3 8.17643e-16 0)
(3 8.66321e-16 0)
(3 7.96832e-16 0)
(3 1.57727e-16 0)
(3 -8.91972e-16 0)
(3 -1.53044e-15 0)
(3 -1.92313e-16 0)
(3 -1.24816e-16 0)
(3 -1.55862e-16 0)
(3 -3.73007e-16 0)
(3 -4.28695e-16 0)
(3 -4.98014e-16 0)
(3 -1.23019e-15 0)
(3 -1.39797e-15 0)
(3 -1.04606e-15 0)
(3 -1.52846e-15 0)
(3 -1.92572e-15 0)
(3 -1.58129e-15 0)
(3 -1.30804e-15 0)
(3 -9.98224e-16 0)
(3 -1.16109e-16 0)
(3 2.93064e-18 0)
(3 5.13624e-16 0)
(3 -1.02627e-16 0)
(3 -6.70591e-16 0)
(3 -8.63805e-16 0)
(3 -9.49079e-16 0)
(3 -1.40385e-15 0)
(3 -2.80121e-15 0)
(3 -3.94986e-15 0)
(3 -3.57181e-15 0)
(3 -1.83475e-15 0)
(3 -9.2377e-16 0)
(3 -7.19454e-16 0)
(3 -2.7733e-16 0)
(3 3.8465e-16 0)
(3 7.34705e-16 0)
(3 5.90617e-16 0)
(3 9.07496e-17 0)
(3 -4.62108e-16 0)
(3 -1.15168e-15 0)
(3 -1.68583e-15 0)
(3 -2.23312e-15 0)
(3 -2.13848e-15 0)
(3 -1.74229e-15 0)
(3 -1.05021e-15 0)
(3 -5.80613e-16 0)
(3 -8.78376e-16 0)
(3 -1.56242e-15 0)
(3 -6.96733e-16 0)
(3 -2.39261e-16 0)
(3 -3.84296e-16 0)
(3 -7.56919e-16 0)
(3 -5.799e-16 0)
(3 -2.34769e-17 0)
(3 1.02318e-15 0)
(3 1.32156e-15 0)
(3 1.83095e-15 0)
(3 1.86448e-15 0)
(3 7.13512e-16 0)
(3 2.75863e-16 0)
(3 -6.76051e-16 0)
(3 -1.59449e-15 0)
(3 -1.05222e-15 0)
(3 -1.72214e-16 0)
(3 3.22536e-16 0)
(3 5.91048e-16 0)
(3 1.42605e-15 0)
(3 1.4822e-15 0)
(3 1.0551e-15 0)
(3 8.86369e-16 0)
(3 1.15942e-15 0)
(3 1.6974e-15 0)
(3 2.46071e-15 0)
(3 2.30649e-15 0)
(3 2.367e-15 0)
(3 2.69744e-15 0)
(3 2.12613e-15 0)
(3 1.61397e-15 0)
(3 5.5661e-16 0)
(3 -4.18473e-16 0)
(3 -6.86096e-16 0)
(3 -1.3291e-15 0)
(3 -1.95232e-15 0)
(3 -2.51517e-15 0)
(3 -2.1805e-15 0)
(3 -2.31374e-15 0)
(3 -1.91257e-15 0)
(3 -1.58165e-15 0)
(3 -6.91091e-16 0)
(3 -4.85336e-17 0)
(3 -3.53987e-16 0)
(3 -7.89063e-16 0)
(3 -6.61246e-16 0)
(3 -5.05183e-17 0)
(3 7.6836e-17 0)
(3 2.28884e-16 0)
(3 1.24418e-16 0)
(3 4.95721e-16 0)
(3 -5.51566e-16 0)
(3 -1.19171e-15 0)
(3 -1.756e-15 0)
(3 1.23864e-15 0)
(3 -2.91919e-17 0)
(3 -2.84429e-16 0)
(3 -6.31944e-17 0)
(3 -1.54004e-16 0)
(3 -8.89334e-16 0)
(3 -1.1308e-15 0)
(3 -1.05873e-15 0)
(3 -6.37064e-16 0)
(3 -5.23675e-16 0)
(3 -5.78437e-16 0)
(3 -9.41667e-16 0)
(3 -1.03287e-15 0)
(3 -6.4836e-16 0)
(3 -3.99772e-16 0)
(3 -6.1132e-17 0)
(3 1.87674e-16 0)
(3 3.57964e-16 0)
(3 2.33173e-16 0)
(3 5.94788e-16 0)
(3 5.98203e-17 0)
(3 -6.00608e-16 0)
(3 -1.27367e-15 0)
(3 -1.03357e-15 0)
(3 -5.46378e-16 0)
(3 -2.81723e-17 0)
(3 4.26027e-16 0)
(3 6.39969e-16 0)
(3 -8.5933e-18 0)
(3 -3.99491e-17 0)
(3 -9.70979e-17 0)
(3 -4.20695e-16 0)
(3 -4.14945e-16 0)
(3 -6.82415e-16 0)
(3 -8.64588e-16 0)
(3 -1.52381e-15 0)
(3 -1.35857e-15 0)
(3 -1.04e-15 0)
(3 -1.17779e-15 0)
(3 -3.49336e-16 0)
(3 -3.71593e-16 0)
(3 -7.71214e-16 0)
(3 -5.53009e-16 0)
(3 -7.16802e-16 0)
(3 -1.31385e-15 0)
(3 -1.45766e-15 0)
(3 -1.17551e-15 0)
(3 -5.07872e-16 0)
(3 2.20437e-16 0)
(3 1.37845e-15 0)
(3 1.86147e-15 0)
(3 7.72007e-16 0)
(3 -1.37344e-16 0)
(3 -4.35429e-16 0)
(3 1.47002e-16 0)
(3 -2.3791e-16 0)
(3 -7.44173e-16 0)
(3 -1.78024e-17 0)
(3 1.72653e-16 0)
(3 -7.16876e-17 0)
(3 -1.85009e-17 0)
(3 1.0115e-15 0)
(3 3.8548e-16 0)
(3 -5.63463e-17 0)
(3 4.66815e-16 0)
(3 1.64183e-15 0)
(3 3.37875e-15 0)
(3 3.85061e-15 0)
(3 3.86065e-15 0)
(3 3.71903e-15 0)
(3 3.68206e-15 0)
(3 3.43212e-15 0)
(3 2.73581e-15 0)
(3 1.65527e-15 0)
(3 2.29355e-16 0)
(3 -4.39741e-16 0)
(3 -1.38686e-15 0)
(3 -1.85851e-15 0)
(3 -3.36616e-15 0)
(3 -3.85674e-15 0)
(3 -3.54996e-15 0)
(3 -8.15914e-16 0)
(3 5.25554e-16 0)
(3 1.07036e-15 0)
(3 3.41203e-16 0)
(3 -5.05035e-16 0)
(3 1.34439e-16 0)
(3 -6.31949e-16 0)
(3 -8.19819e-16 0)
(3 -5.70912e-16 0)
(3 -5.35456e-16 0)
(3 -4.76045e-16 0)
(3 -6.55038e-16 0)
(3 -8.79521e-16 0)
(3 -6.81732e-16 0)
(3 3.87545e-17 0)
(3 1.12166e-15 0)
(3 -1.11754e-17 0)
(3 -1.45095e-16 0)
(3 -3.42477e-16 0)
(3 -3.38304e-16 0)
(3 -4.50447e-16 0)
(3 1.13734e-16 0)
(3 -1.43805e-16 0)
(3 -3.12725e-16 0)
(3 -5.12613e-17 0)
(3 2.86248e-16 0)
(3 2.40341e-16 0)
(3 9.10248e-16 0)
(3 8.38269e-16 0)
(3 5.25352e-16 0)
(3 6.77528e-16 0)
(3 9.2203e-16 0)
(3 1.11e-15 0)
(3 8.79052e-16 0)
(3 3.0264e-16 0)
(3 -1.15508e-16 0)
(3 -9.58577e-16 0)
(3 -1.39779e-15 0)
(3 -7.69572e-16 0)
(3 8.14246e-17 0)
(3 8.23503e-16 0)
(3 1.27552e-15 0)
(3 9.6763e-16 0)
(3 5.13461e-16 0)
(3 5.57209e-16 0)
(3 6.86815e-16 0)
(3 6.38054e-16 0)
(3 3.52106e-17 0)
(3 2.21897e-16 0)
(3 -3.81832e-16 0)
(3 -1.06119e-15 0)
(3 -1.03547e-15 0)
(3 -8.82458e-16 0)
(3 -6.3638e-16 0)
(3 -8.74597e-17 0)
(3 8.82812e-17 0)
(3 -5.30043e-17 0)
(3 7.92561e-17 0)
(3 -1.48086e-15 0)
(3 -1.80057e-15 0)
(3 -1.59958e-15 0)
(3 -1.35138e-15 0)
(3 -1.09535e-15 0)
(3 -1.23135e-15 0)
(3 -1.10131e-15 0)
(3 -5.33129e-16 0)
(3 -9.39059e-16 0)
(3 -1.8582e-15 0)
(3 -2.26971e-15 0)
(3 -1.48115e-15 0)
(3 -6.01408e-16 0)
(3 6.20559e-16 0)
(3 5.96334e-16 0)
(3 1.10357e-15 0)
(3 1.61569e-15 0)
(3 1.34778e-15 0)
(3 4.80815e-16 0)
(3 2.70858e-16 0)
(3 5.59436e-16 0)
(3 2.60787e-15 0)
(3 4.39674e-15 0)
(3 4.30586e-15 0)
(3 3.81381e-15 0)
(3 3.91022e-15 0)
(3 4.55257e-15 0)
(3 5.30932e-15 0)
(3 5.32757e-15 0)
(3 4.3091e-15 0)
(3 1.59924e-15 0)
(3 1.48536e-16 0)
(3 -6.2319e-16 0)
(3 -1.02845e-15 0)
(3 -1.55979e-15 0)
(3 -2.63758e-15 0)
(3 -3.77445e-15 0)
(3 -3.92341e-15 0)
(3 -3.42122e-15 0)
(3 -2.45869e-15 0)
(3 -1.31927e-15 0)
(3 -1.0978e-15 0)
(3 -4.82596e-16 0)
(3 9.59024e-16 0)
(3 8.79865e-16 0)
(3 1.66004e-16 0)
(3 -6.05193e-16 0)
(3 -5.39209e-16 0)
(3 8.29695e-17 0)
(3 6.91992e-16 0)
(3 1.52442e-15 0)
(3 2.17026e-15 0)
(3 3.18495e-15 0)
(3 4.38795e-15 0)
(3 7.52743e-17 0)
(3 -4.48763e-16 0)
(3 -5.43021e-16 0)
(3 -5.89322e-16 0)
(3 -3.28977e-16 0)
(3 4.40025e-17 0)
(3 -2.03767e-16 0)
(3 -6.34661e-16 0)
(3 -5.10014e-16 0)
(3 -9.52565e-17 0)
(3 2.95013e-16 0)
(3 5.04525e-16 0)
(3 5.86569e-16 0)
(3 7.57462e-16 0)
(3 2.73562e-16 0)
(3 1.45792e-17 0)
(3 -3.17619e-16 0)
(3 2.32433e-16 0)
(3 -2.00527e-16 0)
(3 -5.74581e-16 0)
(3 -1.29355e-15 0)
(3 -2.11096e-15 0)
(3 -2.10623e-15 0)
(3 1.03485e-16 0)
(3 4.54658e-16 0)
(3 1.83618e-16 0)
(3 1.10129e-16 0)
(3 -3.2002e-16 0)
(3 -7.73634e-17 0)
(3 2.91692e-16 0)
(3 4.84143e-16 0)
(3 1.63022e-16 0)
(3 4.6386e-17 0)
(3 -2.79846e-16 0)
(3 -5.52587e-16 0)
(3 -1.0523e-15 0)
(3 -1.16443e-15 0)
(3 -5.41383e-16 0)
(3 5.40494e-17 0)
(3 4.2253e-16 0)
(3 7.62788e-16 0)
(3 1.01844e-15 0)
(3 -3.24856e-16 0)
(3 -1.0128e-15 0)
(3 -1.00696e-15 0)
(3 -1.06146e-15 0)
(3 -1.99693e-15 0)
(3 -3.46214e-15 0)
(3 -3.52628e-15 0)
(3 -2.64939e-15 0)
(3 -2.30866e-15 0)
(3 -1.78553e-15 0)
(3 -1.40219e-15 0)
(3 -1.54904e-15 0)
(3 -9.52722e-16 0)
(3 6.44396e-16 0)
(3 1.7041e-15 0)
(3 2.2672e-15 0)
(3 2.67497e-15 0)
(3 3.16644e-15 0)
(3 2.24679e-15 0)
(3 1.80243e-15 0)
(3 2.37854e-15 0)
(3 3.24316e-15 0)
(3 3.9438e-15 0)
(3 3.84842e-15 0)
(3 3.7403e-15 0)
(3 3.07226e-15 0)
(3 3.23873e-15 0)
(3 3.65398e-15 0)
(3 2.92534e-15 0)
(3 1.44977e-15 0)
(3 -8.45225e-17 0)
(3 -1.48106e-17 0)
(3 -8.73621e-16 0)
(3 -1.50622e-15 0)
(3 -1.48693e-15 0)
(3 -2.0427e-15 0)
(3 -2.42572e-15 0)
(3 -3.307e-15 0)
(3 -3.2837e-15 0)
(3 -2.25978e-15 0)
(3 -1.35179e-15 0)
(3 2.08827e-16 0)
(3 1.17364e-15 0)
(3 8.52986e-16 0)
(3 3.37283e-16 0)
(3 -2.50624e-17 0)
(3 3.36696e-16 0)
(3 1.08334e-15 0)
(3 1.79369e-15 0)
(3 3.02542e-15 0)
(3 4.02346e-15 0)
(3 4.01355e-15 0)
(3 3.60011e-15 0)
(3 3.91555e-15 0)
(3 -1.15696e-16 0)
(3 -2.7619e-16 0)
(3 -1.49293e-16 0)
(3 2.01494e-16 0)
(3 2.09269e-16 0)
(3 -1.63511e-16 0)
(3 -2.83968e-16 0)
(3 -2.76843e-16 0)
(3 1.70093e-16 0)
(3 7.27561e-17 0)
(3 1.45807e-16 0)
(3 1.23762e-16 0)
(3 6.46356e-16 0)
(3 8.393e-16 0)
(3 1.23562e-16 0)
(3 -2.38501e-16 0)
(3 -9.17315e-17 0)
(3 3.48747e-16 0)
(3 2.02817e-16 0)
(3 1.53185e-17 0)
(3 -3.17346e-16 0)
(3 -9.20842e-16 0)
(3 -5.09003e-16 0)
(3 8.77819e-17 0)
(3 5.94892e-16 0)
(3 -3.09766e-16 0)
(3 -6.06484e-16 0)
(3 -5.72102e-16 0)
(3 -9.72176e-16 0)
(3 -1.37232e-15 0)
(3 -1.15346e-15 0)
(3 -6.62657e-16 0)
(3 -6.24211e-16 0)
(3 -6.51866e-16 0)
(3 -8.02096e-16 0)
(3 -1.12124e-15 0)
(3 -2.06067e-15 0)
(3 -2.2535e-15 0)
(3 -2.11969e-15 0)
(3 -7.99713e-16 0)
(3 1.71116e-16 0)
(3 1.08279e-15 0)
(3 7.70733e-16 0)
(3 -1.51143e-16 0)
(3 -9.52193e-16 0)
(3 -1.88035e-15 0)
(3 -2.41895e-15 0)
(3 -2.61638e-15 0)
(3 -2.97795e-15 0)
(3 -3.3052e-15 0)
(3 -3.60091e-15 0)
(3 -1.10717e-15 0)
(3 -2.31271e-16 0)
(3 -8.73563e-17 0)
(3 5.34403e-17 0)
(3 8.38044e-16 0)
(3 1.08065e-15 0)
(3 1.07521e-15 0)
(3 1.95798e-15 0)
(3 2.85409e-15 0)
(3 3.01865e-15 0)
(3 2.68443e-15 0)
(3 1.69113e-15 0)
(3 1.11488e-15 0)
(3 1.65546e-15 0)
(3 2.69179e-15 0)
(3 2.83255e-15 0)
(3 1.208e-15 0)
(3 7.96798e-16 0)
(3 3.43161e-16 0)
(3 -3.60187e-16 0)
(3 -1.15277e-15 0)
(3 -1.48519e-15 0)
(3 -2.21299e-15 0)
(3 -2.54156e-15 0)
(3 -2.10996e-15 0)
(3 -1.47561e-15 0)
(3 -1.38364e-15 0)
(3 -2.32807e-15 0)
(3 -2.64744e-15 0)
(3 -2.65628e-16 0)
(3 8.46385e-16 0)
(3 8.7297e-16 0)
(3 6.19919e-16 0)
(3 -6.10973e-16 0)
(3 -1.26967e-15 0)
(3 -1.61256e-15 0)
(3 -1.45564e-15 0)
(3 3.21801e-16 0)
(3 1.72571e-15 0)
(3 2.48679e-15 0)
(3 3.09164e-15 0)
(3 3.74447e-15 0)
(3 3.49987e-15 0)
(3 2.37884e-15 0)
(3 1.68687e-15 0)
(3 -1.91572e-16 0)
(3 2.95574e-16 0)
(3 2.77355e-16 0)
(3 5.39182e-16 0)
(3 5.51739e-16 0)
(3 4.74006e-16 0)
(3 2.0626e-16 0)
(3 6.19261e-16 0)
(3 8.11836e-16 0)
(3 8.71996e-16 0)
(3 5.46935e-16 0)
(3 5.49715e-17 0)
(3 4.35817e-17 0)
(3 -3.34191e-16 0)
(3 1.79138e-16 0)
(3 1.31599e-15 0)
(3 1.46411e-15 0)
(3 8.57435e-16 0)
(3 4.45724e-16 0)
(3 -4.32337e-17 0)
(3 2.31738e-16 0)
(3 5.19011e-16 0)
(3 5.29877e-16 0)
(3 5.49096e-16 0)
(3 7.34022e-16 0)
(3 4.95136e-16 0)
(3 5.24056e-17 0)
(3 7.29176e-16 0)
(3 7.6648e-16 0)
(3 4.63724e-16 0)
(3 5.99204e-16 0)
(3 8.01448e-16 0)
(3 -1.02723e-16 0)
(3 -2.04618e-17 0)
(3 3.13576e-16 0)
(3 3.56261e-16 0)
(3 -4.18812e-16 0)
(3 -1.21726e-15 0)
(3 -1.59566e-15 0)
(3 -1.20836e-15 0)
(3 -1.86161e-16 0)
(3 5.66616e-16 0)
(3 4.87559e-16 0)
(3 -4.3247e-16 0)
(3 -1.88699e-15 0)
(3 -2.65474e-15 0)
(3 -1.90773e-15 0)
(3 -1.15338e-15 0)
(3 -1.22435e-15 0)
(3 -1.87747e-15 0)
(3 -1.75422e-15 0)
(3 -9.94079e-16 0)
(3 1.09354e-15 0)
(3 1.96151e-15 0)
(3 1.78352e-15 0)
(3 2.93674e-16 0)
(3 1.67316e-16 0)
(3 5.01386e-16 0)
(3 1.02535e-15 0)
(3 1.40356e-15 0)
(3 1.67552e-15 0)
(3 1.21513e-15 0)
(3 9.34593e-16 0)
(3 2.49083e-16 0)
(3 7.10448e-17 0)
(3 1.12275e-15 0)
(3 1.1476e-15 0)
(3 1.83582e-16 0)
(3 -4.21054e-16 0)
(3 -1.1415e-15 0)
(3 -2.27715e-15 0)
(3 -2.32653e-15 0)
(3 -1.93418e-15 0)
(3 -2.93274e-15 0)
(3 -2.45911e-15 0)
(3 -5.68798e-16 0)
(3 1.5683e-16 0)
(3 3.03522e-17 0)
(3 -4.45941e-16 0)
(3 -7.30526e-16 0)
(3 -1.02602e-16 0)
(3 3.41027e-17 0)
(3 3.43698e-16 0)
(3 -9.96748e-17 0)
(3 -1.30878e-15 0)
(3 -1.35408e-15 0)
(3 -8.6997e-16 0)
(3 -7.21543e-16 0)
(3 -9.66288e-16 0)
(3 -1.29332e-15 0)
(3 -4.37756e-16 0)
(3 1.49177e-15 0)
(3 1.64961e-15 0)
(3 1.49122e-15 0)
(3 1.2945e-15 0)
(3 1.23267e-15 0)
(3 2.26907e-16 0)
(3 4.35177e-16 0)
(3 5.17513e-16 0)
(3 9.19674e-17 0)
(3 2.98341e-16 0)
(3 3.55673e-16 0)
(3 4.6045e-16 0)
(3 4.0752e-16 0)
(3 5.83551e-16 0)
(3 8.56501e-16 0)
(3 9.90936e-16 0)
(3 3.81612e-16 0)
(3 -1.04574e-16 0)
(3 -1.76521e-16 0)
(3 8.38764e-16 0)
(3 2.23072e-15 0)
(3 1.83731e-15 0)
(3 6.90861e-16 0)
(3 7.50057e-16 0)
(3 2.53349e-16 0)
(3 2.3607e-16 0)
(3 8.92584e-16 0)
(3 4.36364e-16 0)
(3 1.62799e-16 0)
(3 -4.75648e-16 0)
(3 -2.50429e-16 0)
(3 5.37473e-16 0)
(3 1.3913e-15 0)
(3 2.16152e-15 0)
(3 1.97914e-15 0)
(3 1.36798e-15 0)
(3 8.03776e-16 0)
(3 9.28012e-16 0)
(3 1.37346e-15 0)
(3 1.67562e-15 0)
(3 1.73572e-15 0)
(3 1.34928e-15 0)
(3 -1.65526e-16 0)
(3 -1.91625e-15 0)
(3 -8.62891e-16 0)
(3 2.51281e-16 0)
(3 9.22161e-16 0)
(3 7.10025e-16 0)
(3 1.06202e-16 0)
(3 -4.21899e-16 0)
(3 -1.31035e-15 0)
(3 -1.75395e-15 0)
(3 -1.3316e-15 0)
(3 -9.63613e-16 0)
(3 -5.19895e-16 0)
(3 4.72779e-16 0)
(3 1.38887e-15 0)
(3 2.55753e-15 0)
(3 3.35556e-15 0)
(3 3.71115e-15 0)
(3 2.75608e-15 0)
(3 2.51162e-15 0)
(3 2.8702e-15 0)
(3 2.6703e-15 0)
(3 2.25805e-15 0)
(3 2.13107e-15 0)
(3 2.78964e-15 0)
(3 2.78384e-15 0)
(3 1.67962e-15 0)
(3 1.54694e-16 0)
(3 2.93093e-16 0)
(3 6.56873e-16 0)
(3 3.13895e-16 0)
(3 -9.03258e-16 0)
(3 -2.69619e-15 0)
(3 -3.68806e-15 0)
(3 -3.41764e-15 0)
(3 -2.46562e-15 0)
(3 -2.29374e-15 0)
(3 -3.96668e-16 0)
(3 1.36291e-15 0)
(3 1.58159e-15 0)
(3 4.58852e-16 0)
(3 1.05795e-16 0)
(3 1.51165e-16 0)
(3 -1.51195e-16 0)
(3 -5.04603e-16 0)
(3 -4.39945e-16 0)
(3 -5.60074e-16 0)
(3 -5.74857e-16 0)
(3 -5.69621e-16 0)
(3 -1.45882e-16 0)
(3 -3.99569e-17 0)
(3 -4.24432e-16 0)
(3 -4.86814e-16 0)
(3 3.3656e-16 0)
(3 6.35292e-16 0)
(3 1.58293e-15 0)
(3 2.08864e-15 0)
(3 1.88455e-15 0)
(3 1.91576e-15 0)
(3 2.18789e-18 0)
(3 -3.47571e-16 0)
(3 -3.85687e-16 0)
(3 -1.84392e-16 0)
(3 2.85409e-16 0)
(3 4.34722e-16 0)
(3 1.07111e-15 0)
(3 5.77468e-16 0)
(3 1.62244e-16 0)
(3 -2.5362e-16 0)
(3 4.97129e-16 0)
(3 3.3194e-16 0)
(3 3.15026e-16 0)
(3 7.86783e-16 0)
(3 8.42868e-16 0)
(3 9.34844e-16 0)
(3 1.08058e-15 0)
(3 4.16154e-16 0)
(3 7.27281e-16 0)
(3 9.23626e-16 0)
(3 1.88439e-15 0)
(3 2.23406e-15 0)
(3 1.7824e-15 0)
(3 8.96819e-16 0)
(3 1.55398e-16 0)
(3 -3.33641e-16 0)
(3 -2.05827e-16 0)
(3 5.37113e-16 0)
(3 5.18592e-16 0)
(3 4.00313e-16 0)
(3 -2.09141e-16 0)
(3 4.44107e-16 0)
(3 1.34679e-15 0)
(3 1.45647e-15 0)
(3 9.91122e-16 0)
(3 -4.19197e-16 0)
(3 -8.95164e-16 0)
(3 -1.21652e-15 0)
(3 -2.06046e-15 0)
(3 -2.31477e-15 0)
(3 -7.92723e-16 0)
(3 -5.67364e-16 0)
(3 6.46197e-16 0)
(3 1.59511e-15 0)
(3 1.26687e-15 0)
(3 -3.01096e-16 0)
(3 -1.63011e-15 0)
(3 -1.18393e-15 0)
(3 -1.04356e-15 0)
(3 -1.23865e-15 0)
(3 -7.08876e-16 0)
(3 6.13432e-16 0)
(3 7.34781e-16 0)
(3 1.01534e-15 0)
(3 1.66171e-15 0)
(3 3.27728e-15 0)
(3 3.21882e-15 0)
(3 3.01226e-15 0)
(3 3.11918e-15 0)
(3 2.92127e-15 0)
(3 2.83523e-15 0)
(3 3.077e-15 0)
(3 2.38866e-15 0)
(3 2.45177e-15 0)
(3 2.18227e-15 0)
(3 8.28931e-16 0)
(3 6.3438e-17 0)
(3 -3.74788e-16 0)
(3 -1.44004e-15 0)
(3 -3.01733e-15 0)
(3 -3.40853e-15 0)
(3 -2.91946e-15 0)
(3 -1.46788e-15 0)
(3 -1.37236e-17 0)
(3 1.09795e-15 0)
(3 1.19753e-15 0)
(3 7.24546e-16 0)
(3 2.81291e-16 0)
(3 2.24845e-16 0)
(3 4.57311e-16 0)
(3 6.95566e-16 0)
(3 6.95287e-16 0)
(3 -8.54049e-16 0)
(3 -2.08293e-15 0)
(3 -1.15515e-15 0)
(3 -4.39729e-16 0)
(3 9.2031e-17 0)
(3 7.10305e-16 0)
(3 7.86593e-16 0)
(3 1.23865e-15 0)
(3 8.97126e-16 0)
(3 2.3234e-16 0)
(3 -9.40663e-17 0)
(3 1.18401e-15 0)
(3 1.90573e-15 0)
(3 1.29439e-15 0)
(3 4.99862e-17 0)
(3 1.31428e-16 0)
(3 2.91338e-16 0)
(3 4.27681e-16 0)
(3 5.24771e-17 0)
(3 4.40589e-16 0)
(3 1.10397e-15 0)
(3 9.65494e-16 0)
(3 -3.52627e-16 0)
(3 -8.16007e-16 0)
(3 -4.31735e-16 0)
(3 2.88975e-16 0)
(3 4.64436e-16 0)
(3 4.51401e-16 0)
(3 5.73083e-16 0)
(3 9.91712e-16 0)
(3 1.32833e-15 0)
(3 1.23927e-15 0)
(3 6.4559e-16 0)
(3 8.55347e-16 0)
(3 1.38032e-15 0)
(3 2.14176e-15 0)
(3 2.96536e-15 0)
(3 2.99535e-15 0)
(3 2.84997e-15 0)
(3 1.96425e-15 0)
(3 -3.67367e-16 0)
(3 -1.27056e-15 0)
(3 -1.02168e-15 0)
(3 -7.09217e-16 0)
(3 -2.99208e-16 0)
(3 5.89555e-16 0)
(3 5.23678e-16 0)
(3 7.40005e-16 0)
(3 4.1604e-19 0)
(3 -1.85276e-15 0)
(3 -2.11439e-15 0)
(3 -1.80745e-15 0)
(3 -1.03979e-15 0)
(3 4.33599e-16 0)
(3 9.27398e-16 0)
(3 5.29092e-16 0)
(3 3.72551e-16 0)
(3 1.26403e-15 0)
(3 9.41929e-16 0)
(3 9.14484e-16 0)
(3 7.2431e-16 0)
(3 -4.31656e-16 0)
(3 -6.40632e-16 0)
(3 -4.34419e-16 0)
(3 -1.43197e-15 0)
(3 -1.95709e-15 0)
(3 -1.6019e-15 0)
(3 1.85974e-16 0)
(3 5.89404e-16 0)
(3 9.76428e-16 0)
(3 1.69327e-15 0)
(3 1.51689e-15 0)
(3 2.28824e-15 0)
(3 2.59977e-15 0)
(3 2.11325e-15 0)
(3 1.35047e-15 0)
(3 1.30158e-15 0)
(3 1.53025e-15 0)
(3 2.10911e-15 0)
(3 1.13746e-15 0)
(3 7.31371e-16 0)
(3 -9.27351e-16 0)
(3 -2.75133e-15 0)
(3 -2.95627e-15 0)
(3 -2.2951e-15 0)
(3 -1.19679e-15 0)
(3 -2.87622e-16 0)
(3 3.33664e-16 0)
(3 2.12567e-16 0)
(3 2.2491e-16 0)
(3 3.28303e-16 0)
(3 7.69886e-16 0)
(3 1.0697e-15 0)
(3 2.51646e-16 0)
(3 -1.2448e-15 0)
(3 -1.63625e-15 0)
(3 -2.16619e-15 0)
(3 -2.24697e-15 0)
(3 -2.36214e-15 0)
(3 -1.25446e-15 0)
(3 -1.22542e-17 0)
(3 5.80891e-16 0)
(3 1.38139e-15 0)
(3 1.34311e-15 0)
(3 3.46828e-16 0)
(3 -6.14771e-16 0)
(3 -2.41665e-16 0)
(3 -7.57511e-17 0)
(3 1.42091e-17 0)
(3 -2.53872e-16 0)
(3 1.77497e-16 0)
(3 6.81363e-16 0)
(3 6.1571e-16 0)
(3 2.01394e-16 0)
(3 -1.85179e-16 0)
(3 1.92688e-17 0)
(3 2.04468e-16 0)
(3 3.36696e-16 0)
(3 -2.74301e-16 0)
(3 -6.03202e-16 0)
(3 -8.44212e-16 0)
(3 4.84144e-16 0)
(3 7.97889e-16 0)
(3 8.28011e-16 0)
(3 7.29992e-16 0)
(3 8.12634e-16 0)
(3 8.03696e-16 0)
(3 1.00855e-15 0)
(3 6.79543e-16 0)
(3 6.10555e-16 0)
(3 1.54575e-15 0)
(3 1.94341e-15 0)
(3 1.73926e-15 0)
(3 1.40382e-15 0)
(3 1.38196e-15 0)
(3 7.2505e-16 0)
(3 -4.20472e-16 0)
(3 -1.39375e-15 0)
(3 -1.80431e-15 0)
(3 -1.67107e-15 0)
(3 -1.21475e-15 0)
(3 -1.08365e-15 0)
(3 -1.18157e-15 0)
(3 -1.22278e-15 0)
(3 -1.59252e-15 0)
(3 -9.72761e-16 0)
(3 -5.97152e-16 0)
(3 4.067e-16 0)
(3 1.19857e-15 0)
(3 1.59886e-15 0)
(3 8.00554e-16 0)
(3 -1.37488e-15 0)
(3 -1.49872e-15 0)
(3 -5.86894e-16 0)
(3 -5.46514e-17 0)
(3 9.31627e-16 0)
(3 1.60159e-15 0)
(3 -3.547e-16 0)
(3 -5.46103e-16 0)
(3 -4.04316e-16 0)
(3 -6.21538e-17 0)
(3 1.00461e-17 0)
(3 8.03468e-16 0)
(3 1.0406e-15 0)
(3 9.96138e-16 0)
(3 1.57269e-15 0)
(3 1.76098e-15 0)
(3 7.03913e-16 0)
(3 2.14822e-16 0)
(3 7.24e-16 0)
(3 1.16251e-15 0)
(3 1.04966e-15 0)
(3 1.82594e-15 0)
(3 2.23847e-15 0)
(3 2.26316e-15 0)
(3 2.24323e-15 0)
(3 1.26841e-15 0)
(3 1.52592e-16 0)
(3 -6.50916e-16 0)
(3 -1.10537e-15 0)
(3 -3.40768e-16 0)
(3 6.91771e-17 0)
(3 8.58828e-17 0)
(3 -3.74201e-16 0)
(3 -7.04628e-16 0)
(3 -2.36153e-16 0)
(3 1.08186e-16 0)
(3 7.70013e-16 0)
(3 8.28021e-16 0)
(3 4.43602e-16 0)
(3 -2.17722e-16 0)
(3 -5.16026e-16 0)
(3 -6.7213e-17 0)
(3 -2.98681e-16 0)
(3 -8.56441e-16 0)
(3 -7.39863e-17 0)
(3 5.53579e-16 0)
(3 1.20866e-15 0)
(3 1.37642e-15 0)
(3 9.93326e-16 0)
(3 7.70013e-16 0)
(3 6.72158e-16 0)
(3 6.46129e-16 0)
(3 2.42117e-16 0)
(3 -4.66994e-16 0)
(3 -2.30956e-16 0)
(3 -2.09508e-16 0)
(3 -1.19889e-16 0)
(3 -2.00592e-16 0)
(3 -2.42202e-16 0)
(3 -9.47383e-18 0)
(3 -6.14024e-16 0)
(3 -1.01279e-15 0)
(3 -8.29768e-16 0)
(3 -6.93503e-16 0)
(3 -5.36437e-16 0)
(3 5.59647e-17 0)
(3 1.7257e-16 0)
(3 -2.16673e-16 0)
(3 4.51958e-17 0)
(3 3.28317e-17 0)
(3 8.53072e-18 0)
(3 5.13195e-17 0)
(3 5.67878e-16 0)
(3 1.02632e-15 0)
(3 1.08621e-15 0)
(3 2.1171e-15 0)
(3 2.24657e-15 0)
(3 1.77857e-15 0)
(3 1.60688e-15 0)
(3 8.06036e-16 0)
(3 -1.84611e-16 0)
(3 -1.30154e-15 0)
(3 -1.74304e-15 0)
(3 -2.93559e-15 0)
(3 -2.7292e-15 0)
(3 -1.70767e-15 0)
(3 -1.77412e-15 0)
(3 -1.7358e-15 0)
(3 -2.14938e-15 0)
(3 -1.93528e-15 0)
(3 -6.67391e-16 0)
(3 1.64874e-15 0)
(3 2.76075e-15 0)
(3 2.58227e-15 0)
(3 1.16139e-15 0)
(3 -7.66205e-16 0)
(3 -1.71076e-15 0)
(3 -1.98095e-15 0)
(3 -1.63401e-15 0)
(3 -3.6848e-16 0)
(3 3.61837e-16 0)
(3 6.20561e-16 0)
(3 -1.07995e-16 0)
(3 -1.36769e-15 0)
(3 -1.8659e-15 0)
(3 -1.17074e-15 0)
(3 9.40689e-16 0)
(3 1.56994e-15 0)
(3 1.47744e-15 0)
(3 2.01993e-15 0)
(3 1.75034e-15 0)
(3 1.20375e-15 0)
(3 7.44462e-16 0)
(3 5.32252e-16 0)
(3 1.56303e-16 0)
(3 2.21694e-16 0)
(3 9.68428e-16 0)
(3 1.97324e-15 0)
(3 2.81302e-15 0)
(3 2.70016e-15 0)
(3 2.65081e-15 0)
(3 1.51586e-15 0)
(3 1.35061e-15 0)
(3 1.38234e-15 0)
(3 4.55371e-16 0)
(3 5.74002e-16 0)
(3 5.57074e-16 0)
(3 4.37398e-16 0)
(3 1.14622e-15 0)
(3 1.27435e-15 0)
(3 4.7685e-16 0)
(3 5.33416e-16 0)
(3 8.79488e-16 0)
(3 1.14254e-15 0)
(3 6.74966e-16 0)
(3 5.40465e-16 0)
(3 5.84021e-16 0)
(3 8.1953e-16 0)
(3 1.0762e-15 0)
(3 8.61716e-16 0)
(3 1.25754e-16 0)
(3 6.90382e-16 0)
(3 1.07186e-15 0)
(3 9.77532e-16 0)
(3 2.7063e-16 0)
(3 9.87963e-17 0)
(3 2.67e-16 0)
(3 2.08066e-16 0)
(3 8.05334e-17 0)
(3 -7.1313e-16 0)
(3 -8.58391e-16 0)
(3 -3.16313e-17 0)
(3 1.18595e-16 0)
(3 2.12497e-16 0)
(3 1.91431e-16 0)
(3 -2.11218e-16 0)
(3 -7.47666e-16 0)
(3 -6.62726e-16 0)
(3 -5.0372e-16 0)
(3 -2.39922e-16 0)
(3 2.59568e-16 0)
(3 1.9414e-16 0)
(3 -4.56722e-16 0)
(3 -7.18921e-16 0)
(3 -1.04865e-15 0)
(3 -8.92018e-16 0)
(3 -1.06336e-15 0)
(3 -8.45076e-16 0)
(3 -5.36304e-17 0)
(3 5.63347e-16 0)
(3 1.02346e-15 0)
(3 7.6724e-16 0)
(3 6.3231e-16 0)
(3 -1.87486e-16 0)
(3 -1.99403e-16 0)
(3 -2.78952e-16 0)
(3 3.99345e-17 0)
(3 -4.71045e-16 0)
(3 -1.04984e-15 0)
(3 -1.59306e-15 0)
(3 -1.71752e-15 0)
(3 -9.78804e-16 0)
(3 -6.04443e-16 0)
(3 -5.26792e-16 0)
(3 -2.88546e-17 0)
(3 8.12488e-16 0)
(3 1.72839e-15 0)
(3 2.14163e-15 0)
(3 2.18315e-15 0)
(3 1.88019e-15 0)
(3 1.47254e-15 0)
(3 1.62156e-15 0)
(3 1.84165e-15 0)
(3 2.94182e-17 0)
(3 -3.1765e-16 0)
(3 -4.07246e-16 0)
(3 -5.31128e-16 0)
(3 -6.49028e-16 0)
(3 -6.20656e-16 0)
(3 -9.15791e-16 0)
(3 -2.50069e-16 0)
(3 -4.11055e-17 0)
(3 2.37362e-16 0)
(3 6.07119e-16 0)
(3 1.02368e-15 0)
(3 1.5951e-15 0)
(3 2.19308e-16 0)
(3 -8.41656e-16 0)
(3 -4.20189e-16 0)
(3 -1.72067e-16 0)
(3 -1.97444e-16 0)
(3 -3.01157e-16 0)
(3 9.93006e-16 0)
(3 1.78692e-15 0)
(3 1.8305e-15 0)
(3 2.1049e-15 0)
(3 2.11842e-15 0)
(3 1.7232e-15 0)
(3 1.66255e-15 0)
(3 1.50234e-15 0)
(3 1.55522e-15 0)
(3 9.62971e-16 0)
(3 6.25401e-16 0)
(3 4.53682e-16 0)
(3 3.14425e-16 0)
(3 4.22456e-18 0)
(3 -2.81584e-16 0)
(3 1.41521e-17 0)
(3 3.6262e-16 0)
(3 1.14764e-15 0)
(3 1.17113e-15 0)
(3 6.22214e-16 0)
(3 4.25954e-16 0)
(3 8.94506e-16 0)
(3 8.99445e-16 0)
(3 1.93488e-16 0)
(3 -6.39805e-16 0)
(3 2.67576e-16 0)
(3 1.95062e-15 0)
(3 2.63363e-15 0)
(3 1.36063e-15 0)
(3 -5.21779e-17 0)
(3 -1.28435e-15 0)
(3 -1.53532e-15 0)
(3 -1.52265e-15 0)
(3 -1.90824e-15 0)
(3 -2.32284e-15 0)
(3 1.08177e-16 0)
(3 -9.10019e-18 0)
(3 -3.11184e-16 0)
(3 -5.18551e-16 0)
(3 -2.93812e-16 0)
(3 4.10699e-16 0)
(3 5.32677e-16 0)
(3 5.68466e-16 0)
(3 2.96529e-16 0)
(3 4.6619e-17 0)
(3 -1.85006e-16 0)
(3 -5.86047e-16 0)
(3 -6.90348e-16 0)
(3 -5.88063e-16 0)
(3 -8.70731e-16 0)
(3 -1.96551e-15 0)
(3 -2.19525e-15 0)
(3 -2.32572e-15 0)
(3 -2.09006e-15 0)
(3 -9.85021e-16 0)
(3 -1.4736e-15 0)
(3 -1.94306e-15 0)
(3 -2.21365e-15 0)
(3 -2.17819e-15 0)
(3 -9.10108e-16 0)
(3 8.15811e-16 0)
(3 2.16707e-15 0)
(3 1.92687e-15 0)
(3 1.94285e-15 0)
(3 1.20692e-15 0)
(3 7.83312e-16 0)
(3 7.15309e-16 0)
(3 1.26387e-15 0)
(3 1.48557e-15 0)
(3 1.91697e-15 0)
(3 1.9167e-15 0)
(3 1.777e-15 0)
(3 1.29591e-15 0)
(3 1.15553e-15 0)
(3 9.72582e-16 0)
(3 2.13799e-15 0)
(3 2.92029e-15 0)
(3 2.74437e-15 0)
(3 2.19567e-15 0)
(3 1.24425e-15 0)
(3 1.66742e-16 0)
(3 2.67641e-16 0)
(3 8.67859e-16 0)
(3 1.33726e-15 0)
(3 1.39496e-15 0)
(3 8.68454e-16 0)
(3 -1.12186e-17 0)
(3 -2.64744e-16 0)
(3 3.95811e-16 0)
(3 5.89365e-16 0)
(3 -1.13795e-15 0)
(3 -1.82853e-15 0)
(3 -1.53906e-15 0)
(3 -1.34135e-15 0)
(3 -1.29361e-15 0)
(3 -1.43337e-16 0)
(3 1.11029e-15 0)