/*--------------------------------*- C++ -*----------------------------------*\
  =========                 |
  \\      /  F ield         | OpenFOAM: The Open Source CFD Toolbox
   \\    /   O peration     | Website:  https://openfoam.org
    \\  /    A nd           | Version:  7
     \\/     M anipulation  |
\*---------------------------------------------------------------------------*/
FoamFile
{
    version     2.0;
    format      ascii;
    class       volVectorField;
    location    "1";
    object      U;
}
// * * * * * * * * * * * * * * * * * * * * * * * * * * * * * * * * * * * * * //

dimensions      [0 1 -1 0 0 0 0];

internalField   nonuniform List<vector> 
73728
(
(3 4.48201e-18 0)
(3 6.56546e-17 0)
(3 4.35614e-17 0)
(3 1.52902e-16 0)
(3 1.1172e-18 0)
(3 5.27662e-18 0)
(3 -3.08411e-16 0)
(3 -4.50399e-16 0)
(3 -9.52801e-16 0)
(3 -1.80664e-15 0)
(3 -1.58612e-15 0)
(3 -9.76019e-16 0)
(3 -7.70411e-16 0)
(3 -4.47366e-16 0)
(3 -4.67377e-16 0)
(3 -8.97503e-16 0)
(3 -2.29484e-16 0)
(3 -6.33598e-17 0)
(3 3.90646e-16 0)
(3 4.22363e-16 0)
(3 4.24257e-17 0)
(3 -3.93934e-16 0)
(3 -7.17126e-16 0)
(3 -3.67359e-16 0)
(3 9.16621e-16 0)
(3 2.17237e-15 0)
(3 3.30528e-15 0)
(3 1.17836e-15 0)
(3 -9.63849e-16 0)
(3 -1.25217e-15 0)
(3 -1.22682e-15 0)
(3 -7.17101e-16 0)
(3 -1.28068e-15 0)
(3 -2.53981e-15 0)
(3 -3.24258e-15 0)
(3 -3.06639e-15 0)
(3 -3.32356e-15 0)
(3 -3.12298e-15 0)
(3 -1.19482e-15 0)
(3 -9.70708e-16 0)
(3 -9.70673e-16 0)
(3 -1.13187e-15 0)
(3 -1.17092e-15 0)
(3 -1.24008e-15 0)
(3 -1.36889e-15 0)
(3 -1.04782e-15 0)
(3 -1.39331e-15 0)
(3 -8.77477e-16 0)
(3 3.86646e-16 0)
(3 2.43245e-16 0)
(3 3.84657e-16 0)
(3 1.01498e-15 0)
(3 1.11317e-15 0)
(3 1.24036e-15 0)
(3 1.56004e-15 0)
(3 1.777e-15 0)
(3 1.60357e-15 0)
(3 7.66804e-16 0)
(3 1.97399e-16 0)
(3 2.17986e-16 0)
(3 1.30275e-16 0)
(3 1.449e-15 0)
(3 1.7245e-15 0)
(3 1.7914e-15 0)
(3 1.28351e-15 0)
(3 -2.02533e-15 0)
(3 -3.82008e-15 0)
(3 -3.34693e-15 0)
(3 -2.47e-15 0)
(3 -2.21401e-15 0)
(3 -2.34789e-15 0)
(3 -2.10694e-15 0)
(3 -1.6514e-15 0)
(3 -1.18567e-15 0)
(3 -7.61157e-16 0)
(3 -1.4459e-15 0)
(3 -2.31528e-16 0)
(3 1.20355e-15 0)
(3 1.95288e-15 0)
(3 2.04756e-15 0)
(3 4.36516e-16 0)
(3 9.45426e-16 0)
(3 2.01694e-15 0)
(3 2.04712e-15 0)
(3 1.43727e-15 0)
(3 6.88193e-16 0)
(3 -3.74446e-16 0)
(3 -1.14862e-15 0)
(3 -2.64546e-15 0)
(3 -3.21861e-15 0)
(3 -2.27831e-15 0)
(3 -1.64441e-15 0)
(3 -1.75129e-15 0)
(3 -2.0297e-15 0)
(3 -2.06455e-15 0)
(3 -1.9147e-15 0)
(3 3.43254e-17 0)
(3 3.86159e-16 0)
(3 6.60915e-16 0)
(3 1.11149e-15 0)
(3 4.33786e-16 0)
(3 2.0141e-16 0)
(3 3.3079e-16 0)
(3 -8.06671e-17 0)
(3 -8.72885e-16 0)
(3 -1.37152e-15 0)
(3 -1.77552e-15 0)
(3 -1.02077e-15 0)
(3 -6.20333e-16 0)
(3 -7.26137e-16 0)
(3 -6.44786e-16 0)
(3 -7.26747e-16 0)
(3 -3.90329e-16 0)
(3 1.25597e-16 0)
(3 7.86341e-16 0)
(3 1.43825e-15 0)
(3 9.67491e-16 0)
(3 2.26533e-16 0)
(3 1.61923e-16 0)
(3 1.53638e-16 0)
(3 5.14172e-16 0)
(3 1.34641e-15 0)
(3 2.08641e-15 0)
(3 1.90326e-15 0)
(3 -4.49638e-16 0)
(3 -3.13614e-15 0)
(3 -2.34511e-15 0)
(3 -1.02647e-15 0)
(3 -1.28186e-16 0)
(3 -4.47854e-16 0)
(3 -7.97938e-16 0)
(3 -1.24958e-15 0)
(3 -1.67433e-15 0)
(3 -1.47422e-15 0)
(3 -1.37547e-15 0)
(3 -1.78735e-15 0)
(3 -1.76681e-15 0)
(3 -1.96578e-15 0)
(3 -1.97418e-15 0)
(3 -1.90298e-15 0)
(3 -9.65441e-16 0)
(3 -3.52655e-16 0)
(3 -1.41809e-15 0)
(3 -2.95361e-15 0)
(3 -2.50614e-15 0)
(3 -2.54309e-15 0)
(3 -2.29145e-15 0)
(3 8.30291e-16 0)
(3 2.00178e-15 0)
(3 2.22758e-15 0)
(3 3.94531e-15 0)
(3 3.93692e-15 0)
(3 3.62547e-15 0)
(3 2.46384e-15 0)
(3 1.58136e-15 0)
(3 1.73724e-15 0)
(3 2.0473e-15 0)
(3 2.83788e-15 0)
(3 3.32688e-15 0)
(3 3.23132e-15 0)
(3 8.78383e-16 0)
(3 -4.22479e-15 0)
(3 -7.03587e-15 0)
(3 -5.01822e-15 0)
(3 -2.39447e-15 0)
(3 -1.47171e-15 0)
(3 -1.25914e-15 0)
(3 4.15801e-16 0)
(3 1.30683e-15 0)
(3 1.98687e-15 0)
(3 1.90126e-15 0)
(3 4.25598e-16 0)
(3 8.45195e-17 0)
(3 5.99878e-16 0)
(3 2.18571e-15 0)
(3 4.11285e-15 0)
(3 3.77219e-15 0)
(3 3.84173e-15 0)
(3 4.76743e-15 0)
(3 4.6682e-15 0)
(3 9.99194e-16 0)
(3 -1.33653e-15 0)
(3 -7.0976e-16 0)
(3 -1.17805e-16 0)
(3 -7.26424e-16 0)
(3 -1.4265e-15 0)
(3 -1.36659e-15 0)
(3 -8.06861e-16 0)
(3 -1.48229e-15 0)
(3 -1.60298e-15 0)
(3 -1.58204e-16 0)
(3 -3.79771e-18 0)
(3 6.73048e-17 0)
(3 2.41827e-16 0)
(3 4.61701e-16 0)
(3 7.77454e-17 0)
(3 -1.87967e-16 0)
(3 -1.31082e-16 0)
(3 2.4692e-17 0)
(3 -1.24091e-16 0)
(3 -1.84284e-16 0)
(3 -6.04956e-17 0)
(3 -2.79027e-16 0)
(3 -7.79086e-17 0)
(3 -1.74083e-17 0)
(3 -1.4832e-16 0)
(3 -2.30265e-16 0)
(3 -3.3267e-16 0)
(3 3.14179e-17 0)
(3 8.40731e-16 0)
(3 3.55089e-16 0)
(3 1.06107e-16 0)
(3 -2.74113e-16 0)
(3 -5.93436e-16 0)
(3 -3.76145e-16 0)
(3 -9.97877e-16 0)
(3 -1.40892e-15 0)
(3 -1.97617e-15 0)
(3 -1.82451e-15 0)
(3 -1.37892e-15 0)
(3 -1.32068e-15 0)
(3 -1.85785e-15 0)
(3 -1.50125e-15 0)
(3 -9.36436e-16 0)
(3 5.66772e-17 0)
(3 2.8015e-15 0)
(3 3.74959e-15 0)
(3 3.53988e-15 0)
(3 2.74212e-15 0)
(3 2.57222e-15 0)
(3 -6.73724e-17 0)
(3 -3.68567e-15 0)
(3 -4.20122e-15 0)
(3 -3.52631e-15 0)
(3 -2.64616e-15 0)
(3 -9.94972e-16 0)
(3 3.06596e-16 0)
(3 1.20475e-15 0)
(3 1.07407e-15 0)
(3 9.42623e-16 0)
(3 2.17754e-16 0)
(3 -4.58726e-16 0)
(3 -1.13623e-15 0)
(3 -9.78986e-16 0)
(3 3.65947e-16 0)
(3 1.25147e-15 0)
(3 2.42434e-15 0)
(3 2.67211e-15 0)
(3 3.33712e-15 0)
(3 2.76759e-15 0)
(3 2.44488e-15 0)
(3 3.9104e-15 0)
(3 3.53211e-15 0)
(3 1.4482e-15 0)
(3 1.32838e-15 0)
(3 1.608e-15 0)
(3 1.19548e-15 0)
(3 -3.04634e-15 0)
(3 -4.66351e-15 0)
(3 -3.57738e-15 0)
(3 -1.49908e-15 0)
(3 4.33877e-17 0)
(3 2.16595e-15 0)
(3 2.86095e-15 0)
(3 2.58772e-15 0)
(3 1.34912e-15 0)
(3 -1.02029e-15 0)
(3 -2.05796e-15 0)
(3 -9.02566e-16 0)
(3 -1.03591e-16 0)
(3 8.34449e-16 0)
(3 4.16553e-15 0)
(3 7.31814e-15 0)
(3 7.76319e-15 0)
(3 7.46885e-15 0)
(3 5.16554e-15 0)
(3 7.93264e-16 0)
(3 -3.88726e-16 0)
(3 4.22359e-16 0)
(3 1.16316e-15 0)
(3 9.0709e-16 0)
(3 -7.37996e-16 0)
(3 -3.78729e-15 0)
(3 -3.97495e-15 0)
(3 -1.41183e-15 0)
(3 7.02097e-16 0)
(3 2.15615e-15 0)
(3 -1.42634e-16 0)
(3 6.39832e-17 0)
(3 4.25254e-17 0)
(3 2.72131e-16 0)
(3 6.72486e-17 0)
(3 -2.40066e-16 0)
(3 5.2053e-17 0)
(3 2.69667e-16 0)
(3 2.33308e-16 0)
(3 -2.47074e-17 0)
(3 6.43955e-17 0)
(3 3.55429e-16 0)
(3 5.3706e-16 0)
(3 -3.05613e-17 0)
(3 7.38546e-17 0)
(3 -1.43881e-16 0)
(3 -1.38156e-16 0)
(3 6.53513e-16 0)
(3 9.55732e-16 0)
(3 5.65943e-16 0)
(3 -1.62758e-16 0)
(3 -1.22174e-15 0)
(3 -1.1943e-15 0)
(3 -8.8347e-16 0)
(3 -8.00305e-16 0)
(3 -1.93136e-15 0)
(3 -2.4552e-15 0)
(3 -2.2685e-15 0)
(3 -1.65918e-15 0)
(3 -1.0829e-18 0)
(3 1.32259e-15 0)
(3 6.66579e-16 0)
(3 5.28621e-16 0)
(3 8.26838e-16 0)
(3 1.57182e-15 0)
(3 2.65139e-15 0)
(3 3.03764e-15 0)
(3 2.29083e-15 0)
(3 3.1645e-15 0)
(3 7.71723e-16 0)
(3 -3.70322e-15 0)
(3 -4.49227e-15 0)
(3 -4.1881e-15 0)
(3 -2.53412e-15 0)
(3 -1.1717e-15 0)
(3 -5.45753e-17 0)
(3 2.79701e-15 0)
(3 4.04112e-15 0)
(3 4.71759e-15 0)
(3 2.34761e-15 0)
(3 7.80175e-16 0)
(3 -3.77511e-16 0)
(3 -2.10699e-15 0)
(3 -1.61406e-15 0)
(3 -5.74966e-16 0)
(3 -5.18621e-16 0)
(3 -3.35537e-16 0)
(3 -1.16226e-15 0)
(3 -1.22882e-15 0)
(3 -1.16703e-15 0)
(3 5.45386e-16 0)
(3 1.64408e-15 0)
(3 1.40315e-15 0)
(3 3.2444e-16 0)
(3 5.17023e-16 0)
(3 1.44868e-15 0)
(3 -2.84264e-15 0)
(3 -3.92091e-15 0)
(3 -4.12392e-15 0)
(3 -3.65263e-15 0)
(3 -1.71449e-15 0)
(3 -1.63375e-16 0)
(3 4.11757e-16 0)
(3 2.86012e-16 0)
(3 -2.29947e-16 0)
(3 -1.54329e-15 0)
(3 -1.98648e-15 0)
(3 -1.70738e-15 0)
(3 -1.4308e-15 0)
(3 1.33065e-16 0)
(3 1.95303e-15 0)
(3 3.75355e-15 0)
(3 4.42755e-15 0)
(3 4.09709e-15 0)
(3 1.97178e-15 0)
(3 5.37232e-16 0)
(3 1.05546e-15 0)
(3 -1.46805e-15 0)
(3 -2.30909e-15 0)
(3 -2.4201e-15 0)
(3 -2.32005e-15 0)
(3 -2.16997e-15 0)
(3 -1.93455e-15 0)
(3 -1.37913e-15 0)
(3 -2.14256e-16 0)
(3 -3.47469e-16 0)
(3 -1.24472e-15 0)
(3 -7.96475e-17 0)
(3 -1.66591e-16 0)
(3 -3.30251e-16 0)
(3 1.40626e-16 0)
(3 6.61162e-16 0)
(3 5.5665e-16 0)
(3 6.3269e-16 0)
(3 -5.52562e-17 0)
(3 -6.04908e-16 0)
(3 -3.31302e-16 0)
(3 -6.48243e-17 0)
(3 -2.90219e-17 0)
(3 3.21505e-16 0)
(3 -2.45267e-16 0)
(3 -3.45623e-16 0)
(3 -1.77156e-16 0)
(3 -8.85374e-17 0)
(3 1.51401e-16 0)
(3 1.9693e-16 0)
(3 -1.31204e-15 0)
(3 -2.1321e-15 0)
(3 -1.76934e-15 0)
(3 -1.54082e-15 0)
(3 -3.40415e-15 0)
(3 -4.49002e-15 0)
(3 -3.94908e-15 0)
(3 -2.68663e-15 0)
(3 -1.31452e-15 0)
(3 3.11483e-16 0)
(3 1.38747e-16 0)
(3 -1.63713e-16 0)
(3 -7.18445e-16 0)
(3 -2.9009e-16 0)
(3 3.87745e-17 0)
(3 6.03311e-16 0)
(3 3.57251e-16 0)
(3 -3.38678e-16 0)
(3 3.57302e-16 0)
(3 1.01379e-15 0)
(3 -1.14955e-16 0)
(3 -2.35216e-16 0)
(3 -4.77302e-16 0)
(3 -6.40807e-17 0)
(3 7.68046e-16 0)
(3 8.60725e-16 0)
(3 1.94336e-15 0)
(3 2.153e-15 0)
(3 1.2357e-15 0)
(3 -9.76002e-16 0)
(3 -1.51328e-15 0)
(3 -2.06254e-15 0)
(3 -1.40906e-15 0)
(3 -8.21743e-16 0)
(3 8.12829e-16 0)
(3 4.93856e-16 0)
(3 -9.98498e-16 0)
(3 -1.61332e-15 0)
(3 -2.34177e-15 0)
(3 -2.52188e-15 0)
(3 -1.20294e-15 0)
(3 -7.22961e-17 0)
(3 1.91218e-15 0)
(3 1.06454e-15 0)
(3 8.97424e-16 0)
(3 1.22851e-15 0)
(3 -2.34233e-15 0)
(3 -3.46565e-15 0)
(3 -3.4077e-15 0)
(3 -3.09884e-15 0)
(3 -2.80298e-15 0)
(3 -2.41253e-15 0)
(3 -1.42025e-15 0)
(3 3.02122e-16 0)
(3 9.73117e-16 0)
(3 7.878e-16 0)
(3 1.27062e-16 0)
(3 4.039e-16 0)
(3 6.03253e-16 0)
(3 1.0561e-15 0)
(3 1.56813e-15 0)
(3 1.76643e-15 0)
(3 1.81673e-15 0)
(3 1.28209e-15 0)
(3 6.43332e-16 0)
(3 8.99225e-16 0)
(3 -2.58767e-16 0)
(3 -3.82574e-15 0)
(3 -4.51996e-15 0)
(3 -4.19701e-15 0)
(3 -2.31196e-15 0)
(3 -1.01234e-15 0)
(3 -1.01666e-15 0)
(3 -2.36826e-15 0)
(3 -2.64578e-15 0)
(3 -2.15727e-15 0)
(3 -2.22763e-15 0)
(3 6.6057e-17 0)
(3 8.38418e-17 0)
(3 -3.71351e-16 0)
(3 -1.37658e-16 0)
(3 4.45904e-16 0)
(3 5.00664e-16 0)
(3 5.14484e-17 0)
(3 -5.64586e-16 0)
(3 -6.46806e-16 0)
(3 -5.35453e-16 0)
(3 -3.62487e-16 0)
(3 3.79714e-16 0)
(3 8.16518e-16 0)
(3 3.64465e-16 0)
(3 -1.84404e-16 0)
(3 -5.97564e-17 0)
(3 -7.61002e-16 0)
(3 -1.55871e-15 0)
(3 -1.79996e-15 0)
(3 -1.67569e-15 0)
(3 -1.69354e-15 0)
(3 -1.3036e-15 0)
(3 -2.15946e-15 0)
(3 -3.89304e-15 0)
(3 -2.7683e-15 0)
(3 -2.36487e-15 0)
(3 -2.46654e-15 0)
(3 -2.03031e-15 0)
(3 -1.97456e-15 0)
(3 -1.53984e-15 0)
(3 -1.91038e-15 0)
(3 -1.68148e-15 0)
(3 -1.60108e-15 0)
(3 -2.47959e-15 0)
(3 -3.05283e-15 0)
(3 -3.04407e-15 0)
(3 -1.82012e-15 0)
(3 -1.57237e-15 0)
(3 -1.522e-15 0)
(3 1.26812e-16 0)
(3 2.29749e-15 0)
(3 2.66464e-15 0)
(3 2.55568e-15 0)
(3 2.91106e-15 0)
(3 1.88466e-15 0)
(3 1.76577e-16 0)
(3 1.92098e-16 0)
(3 -5.1585e-16 0)
(3 -9.22755e-16 0)
(3 2.76295e-17 0)
(3 7.34073e-16 0)
(3 9.80402e-16 0)
(3 1.09365e-15 0)
(3 1.254e-15 0)
(3 5.79289e-16 0)
(3 4.799e-16 0)
(3 8.52841e-16 0)
(3 1.66328e-15 0)
(3 3.01475e-16 0)
(3 -5.19192e-17 0)
(3 5.27564e-16 0)
(3 2.33955e-15 0)
(3 2.76489e-15 0)
(3 9.20432e-16 0)
(3 -1.75737e-15 0)
(3 -3.19993e-15 0)
(3 -3.40634e-15 0)
(3 -3.79576e-15 0)
(3 -4.23115e-15 0)
(3 -3.90758e-15 0)
(3 -2.50574e-15 0)
(3 -9.26841e-16 0)
(3 1.31845e-15 0)
(3 2.43659e-15 0)
(3 3.27856e-15 0)
(3 2.98689e-15 0)
(3 3.02649e-15 0)
(3 2.54719e-15 0)
(3 1.88273e-15 0)
(3 1.28262e-15 0)
(3 1.4096e-15 0)
(3 1.62352e-15 0)
(3 5.64837e-16 0)
(3 5.12758e-16 0)
(3 8.44868e-16 0)
(3 7.48585e-16 0)
(3 -2.40305e-15 0)
(3 -3.01722e-15 0)
(3 -3.46885e-15 0)
(3 -2.85453e-15 0)
(3 -2.30226e-15 0)
(3 -2.31792e-15 0)
(3 -3.12329e-15 0)
(3 -3.55125e-15 0)
(3 -2.90431e-15 0)
(3 -1.98489e-15 0)
(3 -4.84221e-17 0)
(3 1.48527e-16 0)
(3 3.52304e-16 0)
(3 3.79391e-17 0)
(3 -3.63629e-16 0)
(3 -3.24919e-16 0)
(3 -1.86598e-16 0)
(3 1.30802e-16 0)
(3 1.98221e-16 0)
(3 -5.41506e-16 0)
(3 -5.10336e-16 0)
(3 -3.50842e-16 0)
(3 -2.3469e-16 0)
(3 -1.25704e-16 0)
(3 -3.88137e-17 0)
(3 -4.47755e-16 0)
(3 -1.52081e-15 0)
(3 -1.89908e-15 0)
(3 -1.8129e-15 0)
(3 -8.5158e-16 0)
(3 6.45338e-16 0)
(3 1.96658e-15 0)
(3 -5.6833e-17 0)
(3 -2.73423e-16 0)
(3 8.83852e-16 0)
(3 9.99469e-16 0)
(3 5.53046e-16 0)
(3 5.87741e-16 0)
(3 1.2064e-15 0)
(3 1.42188e-15 0)
(3 4.74121e-16 0)
(3 -1.19078e-15 0)
(3 -1.56637e-15 0)
(3 -1.91174e-15 0)
(3 -5.41335e-15 0)
(3 -7.26658e-15 0)
(3 -4.9395e-15 0)
(3 -4.51896e-16 0)
(3 6.25443e-17 0)
(3 7.84604e-16 0)
(3 2.83451e-15 0)
(3 3.03713e-15 0)
(3 2.004e-15 0)
(3 2.45604e-15 0)
(3 1.8657e-15 0)
(3 9.87596e-16 0)
(3 9.01739e-16 0)
(3 1.27654e-15 0)
(3 2.05923e-15 0)
(3 2.96044e-15 0)
(3 3.81202e-15 0)
(3 3.29887e-15 0)
(3 1.03236e-15 0)
(3 -1.47382e-15 0)
(3 -2.40138e-15 0)
(3 -2.03268e-15 0)
(3 -1.41119e-15 0)
(3 -5.14352e-16 0)
(3 -7.54476e-16 0)
(3 -2.06651e-16 0)
(3 5.56347e-16 0)
(3 1.71689e-15 0)
(3 1.69024e-15 0)
(3 -2.257e-15 0)
(3 -4.38862e-15 0)
(3 -4.71672e-15 0)
(3 -3.36656e-15 0)
(3 -3.53335e-15 0)
(3 -4.14495e-15 0)
(3 -3.98643e-15 0)
(3 -3.03529e-15 0)
(3 -1.44216e-16 0)
(3 1.98007e-15 0)
(3 3.07879e-15 0)
(3 3.63866e-15 0)
(3 3.28575e-15 0)
(3 2.71862e-15 0)
(3 2.68721e-15 0)
(3 1.93458e-15 0)
(3 1.66177e-15 0)
(3 2.29205e-15 0)
(3 2.36524e-15 0)
(3 1.83978e-15 0)
(3 1.44833e-15 0)
(3 2.4336e-15 0)
(3 2.54204e-15 0)
(3 8.6305e-16 0)
(3 -2.94318e-16 0)
(3 -5.92568e-16 0)
(3 -1.15753e-15 0)
(3 -1.21064e-15 0)
(3 -1.07923e-15 0)
(3 -1.86415e-15 0)
(3 -2.84592e-15 0)
(3 -3.738e-15 0)
(3 -2.30961e-15 0)
(3 -2.73781e-16 0)
(3 -6.46229e-17 0)
(3 -2.31846e-16 0)
(3 -1.05366e-15 0)
(3 -1.10456e-15 0)
(3 -1.02252e-15 0)
(3 -6.30098e-16 0)
(3 -2.30929e-16 0)
(3 -1.75445e-16 0)
(3 -5.28968e-16 0)
(3 -8.4466e-16 0)
(3 -1.09608e-15 0)
(3 -9.74518e-16 0)
(3 -3.71012e-16 0)
(3 1.55491e-17 0)
(3 -1.89576e-17 0)
(3 -2.38029e-16 0)
(3 -8.30011e-16 0)
(3 -9.73847e-16 0)
(3 -1.08851e-15 0)
(3 -2.85767e-16 0)
(3 2.3546e-16 0)
(3 5.30756e-17 0)
(3 1.75924e-16 0)
(3 3.92394e-16 0)
(3 5.8576e-16 0)
(3 4.9874e-16 0)
(3 -5.94817e-16 0)
(3 -3.85706e-16 0)
(3 1.4947e-16 0)
(3 1.99566e-15 0)
(3 1.7326e-15 0)
(3 7.47372e-16 0)
(3 -1.06507e-15 0)
(3 -2.17633e-15 0)
(3 -1.2245e-15 0)
(3 -1.77879e-16 0)
(3 6.78666e-16 0)
(3 1.28749e-15 0)
(3 5.18542e-16 0)
(3 1.64669e-15 0)
(3 7.8231e-16 0)
(3 2.71085e-16 0)
(3 1.10461e-15 0)
(3 9.98765e-16 0)
(3 6.76849e-16 0)
(3 8.39965e-16 0)
(3 2.31157e-15 0)
(3 4.10899e-15 0)
(3 4.00554e-15 0)
(3 3.10014e-15 0)
(3 2.17641e-15 0)
(3 6.18491e-16 0)
(3 -1.23261e-16 0)
(3 -5.57963e-16 0)
(3 4.30916e-16 0)
(3 8.20101e-16 0)
(3 8.02531e-16 0)
(3 7.88097e-16 0)
(3 1.17968e-15 0)
(3 7.91584e-16 0)
(3 2.53298e-16 0)
(3 -1.84673e-15 0)
(3 -4.76544e-15 0)
(3 -5.48507e-15 0)
(3 -3.39375e-15 0)
(3 -7.06997e-16 0)
(3 -1.12726e-15 0)
(3 -1.31107e-15 0)
(3 -1.22384e-15 0)
(3 -1.19316e-15 0)
(3 -5.87791e-17 0)
(3 8.20102e-16 0)
(3 1.05867e-15 0)
(3 2.2401e-15 0)
(3 2.80154e-15 0)
(3 3.0583e-15 0)
(3 3.39511e-15 0)
(3 3.67422e-15 0)
(3 3.62627e-15 0)
(3 3.14956e-15 0)
(3 2.19495e-15 0)
(3 2.34588e-15 0)
(3 3.0801e-15 0)
(3 4.26659e-15 0)
(3 2.22474e-15 0)
(3 1.05282e-15 0)
(3 1.31106e-15 0)
(3 1.1417e-15 0)
(3 4.46289e-16 0)
(3 -3.50214e-16 0)
(3 -1.46117e-15 0)
(3 -3.21997e-15 0)
(3 -3.39118e-15 0)
(3 -3.70083e-15 0)
(3 -3.15807e-15 0)
(3 2.86861e-16 0)
(3 5.01003e-16 0)
(3 5.20522e-17 0)
(3 -3.11914e-16 0)
(3 8.91035e-17 0)
(3 2.27997e-16 0)
(3 9.75207e-17 0)
(3 2.41939e-16 0)
(3 3.63163e-16 0)
(3 3.88054e-16 0)
(3 7.42518e-17 0)
(3 2.21767e-17 0)
(3 -3.85837e-17 0)
(3 -5.87006e-17 0)
(3 -1.61499e-16 0)
(3 -1.14125e-16 0)
(3 -2.28945e-16 0)
(3 -7.30233e-16 0)
(3 -8.09601e-16 0)
(3 -1.29219e-15 0)
(3 -1.1972e-15 0)
(3 -1.17332e-15 0)
(3 -1.26265e-15 0)
(3 -1.08826e-15 0)
(3 -1.16558e-15 0)
(3 -1.26948e-15 0)
(3 -1.87022e-15 0)
(3 -2.38935e-15 0)
(3 -2.76161e-15 0)
(3 -1.89498e-15 0)
(3 -8.10422e-17 0)
(3 4.73939e-16 0)
(3 -5.09858e-16 0)
(3 -1.64862e-15 0)
(3 -1.20729e-15 0)
(3 3.47706e-16 0)
(3 1.04557e-15 0)
(3 7.33458e-16 0)
(3 1.08306e-15 0)
(3 1.58749e-15 0)
(3 1.70277e-15 0)
(3 1.27637e-15 0)
(3 7.83273e-16 0)
(3 1.27494e-16 0)
(3 2.99671e-16 0)
(3 3.49399e-16 0)
(3 2.31854e-16 0)
(3 1.03747e-15 0)
(3 5.10697e-16 0)
(3 -1.23154e-15 0)
(3 -2.21656e-15 0)
(3 -2.41002e-15 0)
(3 -1.83213e-15 0)
(3 -1.2519e-15 0)
(3 -1.69903e-16 0)
(3 4.61385e-16 0)
(3 1.27087e-15 0)
(3 9.93287e-16 0)
(3 1.16168e-15 0)
(3 6.49603e-16 0)
(3 -1.86155e-16 0)
(3 -1.65342e-15 0)
(3 -2.20052e-15 0)
(3 -2.14878e-15 0)
(3 -3.63381e-16 0)
(3 1.62191e-15 0)
(3 1.13402e-15 0)
(3 -4.23434e-16 0)
(3 -8.46335e-16 0)
(3 -5.93733e-16 0)
(3 -2.68414e-16 0)
(3 -5.24413e-16 0)
(3 9.17718e-16 0)
(3 1.30157e-15 0)
(3 1.92909e-15 0)
(3 2.73486e-15 0)
(3 3.51568e-15 0)
(3 3.45119e-15 0)
(3 4.28843e-15 0)
(3 4.43442e-15 0)
(3 3.02205e-15 0)
(3 2.04783e-15 0)
(3 2.70719e-15 0)
(3 3.43343e-15 0)
(3 3.01131e-15 0)
(3 1.9149e-15 0)
(3 1.37525e-15 0)
(3 1.22129e-15 0)
(3 1.36809e-15 0)
(3 1.17289e-16 0)
(3 -1.67512e-15 0)
(3 -4.94158e-15 0)
(3 -6.86248e-15 0)
(3 -6.93695e-15 0)
(3 -5.70938e-15 0)
(3 -3.72691e-15 0)
(3 3.52001e-16 0)
(3 5.68926e-16 0)
(3 3.30027e-16 0)
(3 2.87358e-16 0)
(3 4.16801e-16 0)
(3 4.35678e-16 0)
(3 -3.28936e-16 0)
(3 -3.90883e-16 0)
(3 -1.89329e-16 0)
(3 3.0972e-16 0)
(3 4.61898e-16 0)
(3 6.58845e-16 0)
(3 7.36892e-16 0)
(3 2.54385e-16 0)
(3 -2.19752e-16 0)
(3 -4.03081e-16 0)
(3 -5.70217e-16 0)
(3 -5.63662e-16 0)
(3 -6.08208e-16 0)
(3 9.31417e-17 0)
(3 7.11652e-16 0)
(3 2.22541e-16 0)
(3 4.23408e-16 0)
(3 1.28944e-15 0)
(3 1.1924e-15 0)
(3 2.14728e-15 0)
(3 2.7195e-15 0)
(3 2.68514e-15 0)
(3 2.04455e-15 0)
(3 1.02971e-15 0)
(3 2.24983e-16 0)
(3 -1.43206e-16 0)
(3 -9.57327e-16 0)
(3 -1.8178e-15 0)
(3 -2.33144e-15 0)
(3 -2.79895e-15 0)
(3 -3.34259e-15 0)
(3 -3.32677e-15 0)
(3 -2.11552e-15 0)
(3 -1.89277e-15 0)
(3 -2.12259e-15 0)
(3 -1.54613e-15 0)
(3 -1.27928e-15 0)
(3 -2.18343e-15 0)
(3 -2.65259e-15 0)
(3 -2.21266e-15 0)
(3 -2.37532e-15 0)
(3 -3.00195e-15 0)
(3 -2.98384e-15 0)
(3 -3.01791e-15 0)
(3 -3.27865e-15 0)
(3 -3.49451e-15 0)
(3 -2.867e-15 0)
(3 -2.33213e-15 0)
(3 -3.28323e-16 0)
(3 4.08864e-16 0)
(3 -2.55119e-16 0)
(3 -7.92969e-16 0)
(3 -1.10387e-15 0)
(3 -1.33792e-15 0)
(3 -1.0815e-15 0)
(3 -1.53058e-17 0)
(3 -6.29612e-16 0)
(3 -3.30276e-17 0)
(3 -4.80228e-16 0)
(3 -1.66103e-15 0)
(3 -2.59592e-15 0)
(3 -2.8468e-15 0)
(3 -2.41317e-15 0)
(3 -1.90947e-15 0)
(3 -9.86683e-16 0)
(3 -5.52841e-16 0)
(3 -3.27358e-16 0)
(3 9.79439e-16 0)
(3 1.82847e-15 0)
(3 2.86417e-15 0)
(3 3.07049e-15 0)
(3 3.58307e-15 0)
(3 3.48349e-15 0)
(3 3.22376e-15 0)
(3 3.09716e-15 0)
(3 2.89205e-15 0)
(3 2.26146e-15 0)
(3 1.95122e-15 0)
(3 6.67718e-16 0)
(3 -8.42887e-17 0)
(3 7.50338e-16 0)
(3 1.96778e-15 0)
(3 1.60411e-15 0)
(3 1.23259e-15 0)
(3 5.39181e-16 0)
(3 -9.20201e-16 0)
(3 -3.07703e-15 0)
(3 -6.14433e-15 0)
(3 -6.54201e-15 0)
(3 -6.00673e-15 0)
(3 -1.83762e-16 0)
(3 -2.2406e-16 0)
(3 -6.69641e-17 0)
(3 3.25675e-16 0)
(3 4.50581e-16 0)
(3 2.99126e-16 0)
(3 -4.8144e-16 0)
(3 -1.14518e-15 0)
(3 -6.68974e-16 0)
(3 -4.95243e-16 0)
(3 2.07303e-16 0)
(3 3.70279e-16 0)
(3 3.62851e-16 0)
(3 3.48586e-16 0)
(3 1.87157e-16 0)
(3 4.90404e-17 0)
(3 -8.68394e-18 0)
(3 1.80865e-16 0)
(3 2.95152e-16 0)
(3 8.03957e-16 0)
(3 1.35611e-15 0)
(3 1.1162e-15 0)
(3 1.30277e-15 0)
(3 1.62526e-15 0)
(3 2.36084e-15 0)
(3 3.5325e-15 0)
(3 4.53462e-15 0)
(3 3.74401e-15 0)
(3 2.89267e-15 0)
(3 1.50844e-15 0)
(3 -9.16069e-17 0)
(3 1.40627e-15 0)
(3 1.87093e-15 0)
(3 1.52548e-15 0)
(3 -2.41897e-16 0)
(3 -1.0616e-15 0)
(3 -3.73469e-15 0)
(3 -4.7603e-15 0)
(3 -4.81852e-15 0)
(3 -4.61321e-15 0)
(3 -3.30778e-15 0)
(3 -2.76816e-15 0)
(3 -2.81937e-15 0)
(3 -3.24377e-15 0)
(3 -2.55312e-15 0)
(3 -2.24474e-15 0)
(3 -1.91276e-15 0)
(3 -2.83402e-15 0)
(3 -2.51197e-15 0)
(3 -1.85022e-15 0)
(3 -1.77622e-15 0)
(3 -2.11154e-15 0)
(3 -2.092e-15 0)
(3 -2.40993e-16 0)
(3 1.20021e-15 0)
(3 9.01648e-16 0)
(3 8.41144e-17 0)
(3 -9.08304e-17 0)
(3 2.25256e-16 0)
(3 1.8613e-16 0)
(3 1.00221e-16 0)
(3 3.39027e-16 0)
(3 1.25862e-15 0)
(3 7.7141e-16 0)
(3 1.31663e-16 0)
(3 -1.77434e-15 0)
(3 -2.55701e-15 0)
(3 -2.18393e-15 0)
(3 -1.78188e-15 0)
(3 -1.39693e-15 0)
(3 -7.78149e-16 0)
(3 -2.41506e-16 0)
(3 -3.3907e-16 0)
(3 -4.6782e-17 0)
(3 1.07004e-15 0)
(3 2.07189e-15 0)
(3 2.53491e-15 0)
(3 3.09001e-15 0)
(3 3.19058e-15 0)
(3 3.40401e-15 0)
(3 4.13806e-15 0)
(3 4.33557e-15 0)
(3 3.60352e-15 0)
(3 2.48701e-15 0)
(3 2.48813e-16 0)
(3 -1.57198e-15 0)
(3 -1.65604e-15 0)
(3 -9.09999e-16 0)
(3 6.41241e-16 0)
(3 2.77927e-15 0)
(3 2.74719e-15 0)
(3 1.13522e-15 0)
(3 -1.00979e-15 0)
(3 -2.72344e-15 0)
(3 -3.22752e-15 0)
(3 -3.27734e-15 0)
(3 6.89374e-17 0)
(3 -3.26801e-16 0)
(3 4.9377e-17 0)
(3 6.54589e-16 0)
(3 5.61421e-16 0)
(3 4.96623e-16 0)
(3 8.34563e-16 0)
(3 3.55402e-16 0)
(3 6.43066e-16 0)
(3 7.37093e-16 0)
(3 4.21309e-16 0)
(3 2.08961e-16 0)
(3 2.66493e-16 0)
(3 1.6606e-16 0)
(3 -5.34587e-16 0)
(3 -1.43339e-15 0)
(3 -1.47887e-15 0)
(3 -1.00679e-15 0)
(3 3.70413e-16 0)
(3 1.33112e-15 0)
(3 1.71142e-15 0)
(3 2.4434e-15 0)
(3 3.13964e-15 0)
(3 2.92724e-15 0)
(3 2.1247e-15 0)
(3 -1.47009e-16 0)
(3 -1.02746e-15 0)
(3 -1.03459e-15 0)
(3 -5.86782e-16 0)
(3 -4.60371e-17 0)
(3 1.82998e-16 0)
(3 1.87973e-15 0)
(3 3.8571e-15 0)
(3 3.71586e-15 0)
(3 1.46959e-15 0)
(3 -6.28868e-16 0)
(3 -2.56567e-15 0)
(3 -3.92056e-15 0)
(3 -3.92084e-15 0)
(3 -3.10822e-15 0)
(3 -2.5004e-15 0)
(3 -2.38839e-15 0)
(3 -2.1034e-15 0)
(3 -2.30427e-15 0)
(3 -2.41179e-15 0)
(3 -2.60451e-15 0)
(3 -1.51785e-15 0)
(3 -8.4652e-16 0)
(3 -9.10064e-16 0)
(3 -1.01876e-15 0)
(3 -8.54989e-16 0)
(3 -6.7474e-16 0)
(3 -1.56984e-16 0)
(3 -2.9696e-16 0)
(3 3.04326e-16 0)
(3 8.5367e-17 0)
(3 -4.71627e-16 0)
(3 -8.11027e-16 0)
(3 1.02985e-16 0)
(3 1.53646e-16 0)
(3 -1.9157e-16 0)
(3 -1.03874e-15 0)
(3 -1.45896e-15 0)
(3 -3.04936e-16 0)
(3 1.49532e-15 0)
(3 1.60649e-15 0)
(3 1.90142e-15 0)
(3 1.99012e-15 0)
(3 1.61726e-15 0)
(3 4.23207e-16 0)
(3 -7.78808e-16 0)
(3 -1.05146e-15 0)
(3 -5.06876e-16 0)
(3 -2.32689e-16 0)
(3 5.3937e-17 0)
(3 8.88756e-16 0)
(3 2.1891e-15 0)
(3 2.55918e-15 0)
(3 2.85322e-15 0)
(3 3.15862e-15 0)
(3 3.22211e-15 0)
(3 3.60371e-15 0)
(3 3.47155e-15 0)
(3 3.53164e-15 0)
(3 2.97178e-15 0)
(3 1.82049e-15 0)
(3 1.04916e-15 0)
(3 1.30153e-15 0)
(3 1.55433e-15 0)
(3 1.47498e-15 0)
(3 1.38801e-15 0)
(3 1.49302e-15 0)
(3 2.08477e-15 0)
(3 2.61392e-15 0)
(3 2.79567e-15 0)
(3 2.26626e-15 0)
(3 -1.63002e-17 0)
(3 -3.14148e-16 0)
(3 -1.9817e-16 0)
(3 -5.26814e-16 0)
(3 -3.39862e-16 0)
(3 -2.33427e-16 0)
(3 -2.19882e-16 0)
(3 1.68554e-16 0)
(3 5.93229e-16 0)
(3 7.54321e-16 0)
(3 9.5517e-17 0)
(3 -9.38794e-17 0)
(3 -2.85155e-16 0)
(3 -3.68329e-16 0)
(3 -8.30774e-16 0)
(3 -1.60825e-15 0)
(3 -3.79412e-17 0)
(3 4.86335e-16 0)
(3 8.23753e-16 0)
(3 1.83626e-15 0)
(3 2.72057e-15 0)
(3 3.27268e-15 0)
(3 2.98933e-15 0)
(3 2.8077e-15 0)
(3 1.08278e-15 0)
(3 -1.8624e-15 0)
(3 -3.95507e-15 0)
(3 -4.42935e-15 0)
(3 -3.57753e-15 0)
(3 -3.06366e-16 0)
(3 1.79042e-15 0)
(3 3.15804e-15 0)
(3 3.51182e-15 0)
(3 2.42137e-15 0)
(3 2.49817e-15 0)
(3 1.43867e-15 0)
(3 1.41612e-15 0)
(3 1.48467e-15 0)
(3 1.19272e-15 0)
(3 6.31907e-16 0)
(3 -1.9857e-16 0)
(3 -8.99482e-16 0)
(3 -1.69198e-15 0)
(3 -1.92824e-15 0)
(3 -1.44311e-15 0)
(3 -1.04786e-15 0)
(3 -7.4507e-16 0)
(3 2.62035e-16 0)
(3 7.65688e-16 0)
(3 7.32574e-16 0)
(3 2.92361e-16 0)
(3 -3.30126e-16 0)
(3 -5.99398e-17 0)
(3 -4.33247e-17 0)
(3 1.40241e-15 0)
(3 1.30911e-15 0)
(3 1.0804e-15 0)
(3 3.4122e-16 0)
(3 -4.95859e-16 0)
(3 -3.48149e-16 0)
(3 -5.92975e-16 0)
(3 -7.5765e-16 0)
(3 -1.07664e-15 0)
(3 -1.17017e-15 0)
(3 7.21242e-16 0)
(3 1.76094e-15 0)
(3 2.01837e-15 0)
(3 2.27871e-15 0)
(3 2.34509e-15 0)
(3 7.98738e-16 0)
(3 -6.01107e-16 0)
(3 -1.71493e-15 0)
(3 -2.08599e-15 0)
(3 -1.7379e-15 0)
(3 -1.43537e-15 0)
(3 -4.66817e-16 0)
(3 4.5876e-16 0)
(3 2.81518e-15 0)
(3 4.28375e-15 0)
(3 4.09449e-15 0)
(3 3.17795e-15 0)
(3 2.84782e-15 0)
(3 2.05889e-15 0)
(3 1.96025e-15 0)
(3 2.25101e-15 0)
(3 2.8765e-15 0)
(3 3.20316e-15 0)
(3 1.59206e-16 0)
(3 -1.57197e-15 0)
(3 -2.6512e-15 0)
(3 -1.60927e-15 0)
(3 -4.78293e-16 0)
(3 1.13651e-15 0)
(3 3.99262e-15 0)
(3 5.087e-15 0)
(3 4.47362e-15 0)
(3 -3.47828e-17 0)
(3 -1.74048e-16 0)
(3 -4.09002e-16 0)
(3 -4.02388e-16 0)
(3 -4.98745e-16 0)
(3 -2.75162e-16 0)
(3 -5.59469e-16 0)
(3 -2.29518e-16 0)
(3 1.66417e-16 0)
(3 -1.26331e-16 0)
(3 -2.46428e-16 0)
(3 -2.93742e-17 0)
(3 -2.77583e-16 0)
(3 -9.6341e-17 0)
(3 6.43983e-16 0)
(3 9.98427e-16 0)
(3 2.18423e-15 0)
(3 2.80011e-15 0)
(3 2.45707e-15 0)
(3 1.25293e-15 0)
(3 9.64076e-16 0)
(3 1.25654e-15 0)
(3 1.36637e-15 0)
(3 3.72312e-16 0)
(3 2.09093e-16 0)
(3 -1.29657e-15 0)
(3 -3.47895e-15 0)
(3 -4.13035e-15 0)
(3 -1.40877e-15 0)
(3 9.78302e-16 0)
(3 2.23345e-15 0)
(3 2.30286e-15 0)
(3 1.73498e-15 0)
(3 2.16987e-15 0)
(3 2.90439e-15 0)
(3 2.68557e-15 0)
(3 1.725e-15 0)
(3 1.0494e-15 0)
(3 5.13104e-16 0)
(3 2.70468e-16 0)
(3 3.8357e-17 0)
(3 -3.90494e-16 0)
(3 -5.28845e-16 0)
(3 -5.30845e-16 0)
(3 -2.92407e-16 0)
(3 7.42359e-16 0)
(3 9.93115e-16 0)
(3 9.60975e-17 0)
(3 -1.17921e-16 0)
(3 3.80001e-16 0)
(3 8.34681e-16 0)
(3 1.16721e-15 0)
(3 9.75414e-16 0)
(3 9.58748e-16 0)
(3 1.58231e-15 0)
(3 1.01952e-15 0)
(3 1.27196e-15 0)
(3 1.35244e-15 0)
(3 3.62241e-16 0)
(3 -3.52789e-16 0)
(3 -5.4509e-16 0)
(3 -1.35251e-15 0)
(3 -2.51408e-15 0)
(3 -3.26682e-15 0)
(3 -2.44359e-15 0)
(3 -1.89016e-15 0)
(3 -1.47513e-15 0)
(3 -1.28446e-15 0)
(3 -1.63244e-15 0)
(3 -1.77271e-15 0)
(3 -2.20073e-15 0)
(3 -3.28192e-15 0)
(3 -4.31639e-15 0)
(3 -3.98291e-15 0)
(3 -2.17072e-15 0)
(3 -1.56965e-16 0)
(3 2.1684e-16 0)
(3 2.02206e-15 0)
(3 3.11204e-15 0)
(3 3.05356e-15 0)
(3 1.98897e-15 0)
(3 1.31388e-15 0)
(3 -2.64008e-16 0)
(3 -1.76992e-15 0)
(3 -1.35185e-15 0)
(3 -5.73837e-16 0)
(3 -1.09207e-15 0)
(3 -3.06169e-15 0)
(3 -4.43773e-15 0)
(3 -5.00766e-15 0)
(3 -4.17852e-15 0)
(3 -2.80331e-15 0)
(3 -1.35125e-15 0)
(3 1.65039e-16 0)
(3 1.60654e-16 0)
(3 9.11704e-16 0)
(3 -8.99898e-17 0)
(3 -1.19325e-16 0)
(3 -7.07711e-17 0)
(3 2.93884e-16 0)
(3 3.22643e-17 0)
(3 5.9493e-16 0)
(3 9.63259e-16 0)
(3 9.44958e-16 0)
(3 5.3569e-16 0)
(3 2.99853e-17 0)
(3 -1.94429e-16 0)
(3 7.27927e-17 0)
(3 2.78179e-16 0)
(3 2.92312e-16 0)
(3 5.43925e-16 0)
(3 9.54954e-16 0)
(3 1.70014e-16 0)
(3 -6.14318e-16 0)
(3 -1.02352e-15 0)
(3 -1.94955e-15 0)
(3 -2.97256e-15 0)
(3 -2.92296e-15 0)
(3 -1.80711e-15 0)
(3 6.51474e-16 0)
(3 1.1423e-15 0)
(3 -2.44748e-17 0)
(3 -5.18795e-16 0)
(3 7.59194e-16 0)
(3 3.48126e-16 0)
(3 7.37338e-16 0)
(3 1.2676e-15 0)
(3 1.15646e-15 0)
(3 1.16333e-15 0)
(3 1.58298e-15 0)
(3 8.91597e-16 0)
(3 5.71863e-16 0)
(3 -8.97207e-16 0)
(3 -1.05353e-15 0)
(3 -1.02741e-15 0)
(3 -1.73052e-15 0)
(3 -1.68503e-15 0)
(3 -1.6705e-15 0)
(3 -1.37952e-15 0)
(3 -8.29261e-16 0)
(3 -6.37388e-16 0)
(3 4.0092e-16 0)
(3 2.31012e-16 0)
(3 -7.30775e-16 0)
(3 -1.00228e-15 0)
(3 -8.64798e-16 0)
(3 2.55593e-17 0)
(3 1.13347e-15 0)
(3 1.19001e-15 0)
(3 1.17104e-15 0)
(3 4.00883e-16 0)
(3 -2.0695e-16 0)
(3 -1.10705e-16 0)
(3 5.38269e-16 0)
(3 1.85935e-16 0)
(3 -8.52071e-17 0)
(3 8.54228e-17 0)
(3 -6.98442e-16 0)
(3 -4.1484e-15 0)
(3 -6.37791e-15 0)
(3 -6.88358e-15 0)
(3 -6.52987e-15 0)
(3 -5.91765e-15 0)
(3 -4.6113e-15 0)
(3 -3.85561e-15 0)
(3 -4.17566e-15 0)
(3 -3.47569e-15 0)
(3 -2.16197e-15 0)
(3 -1.70235e-15 0)
(3 -1.99194e-15 0)
(3 -3.75851e-17 0)
(3 2.55458e-15 0)
(3 2.79478e-15 0)
(3 2.74411e-15 0)
(3 2.89416e-15 0)
(3 2.43236e-15 0)
(3 1.63262e-16 0)
(3 -1.97226e-15 0)
(3 -1.02416e-15 0)
(3 -8.81443e-16 0)
(3 -3.43751e-15 0)
(3 -4.42056e-15 0)
(3 -4.91932e-15 0)
(3 -5.854e-15 0)
(3 -7.18572e-15 0)
(3 -5.11052e-15 0)
(3 -3.97966e-15 0)
(3 -3.81083e-15 0)
(3 -3.76489e-15 0)
(3 -3.17634e-15 0)
(3 -1.36082e-15 0)
(3 -6.57993e-16 0)
(3 -2.04239e-16 0)
(3 -5.69609e-16 0)
(3 -5.82608e-16 0)
(3 -2.49415e-16 0)
(3 -4.27451e-16 0)
(3 -2.42572e-16 0)
(3 3.33691e-16 0)
(3 1.53677e-16 0)
(3 -1.81026e-16 0)
(3 -2.29283e-16 0)
(3 -6.4565e-17 0)
(3 -1.34714e-17 0)
(3 2.21606e-16 0)
(3 9.56479e-17 0)
(3 1.20044e-16 0)
(3 1.93266e-16 0)
(3 1.50157e-16 0)
(3 4.99742e-17 0)
(3 -9.21618e-16 0)
(3 -1.40348e-15 0)
(3 -3.20063e-15 0)
(3 -4.24347e-15 0)
(3 -4.55095e-15 0)
(3 -2.58143e-15 0)
(3 -2.61074e-17 0)
(3 8.03257e-16 0)
(3 1.4051e-15 0)
(3 1.23467e-15 0)
(3 9.14343e-16 0)
(3 7.11967e-16 0)
(3 4.56183e-16 0)
(3 7.86847e-16 0)
(3 2.38272e-15 0)
(3 2.31481e-15 0)
(3 1.75652e-15 0)
(3 4.41192e-16 0)
(3 4.13918e-16 0)
(3 9.91453e-16 0)
(3 -1.32609e-15 0)
(3 -2.98803e-15 0)
(3 -3.35131e-15 0)
(3 -3.29115e-15 0)
(3 -2.63049e-15 0)
(3 -1.14166e-15 0)
(3 9.57608e-16 0)
(3 9.61223e-16 0)
(3 5.38283e-16 0)
(3 -2.32105e-16 0)
(3 -4.64156e-16 0)
(3 -3.55265e-16 0)
(3 2.10215e-16 0)
(3 6.71906e-16 0)
(3 -8.30096e-16 0)
(3 -2.4308e-15 0)
(3 -2.88133e-15 0)
(3 -1.3482e-15 0)
(3 -4.35292e-16 0)
(3 -1.13718e-15 0)
(3 1.17905e-16 0)
(3 9.36832e-16 0)
(3 1.11842e-15 0)
(3 -4.86698e-16 0)
(3 -6.82762e-16 0)
(3 -2.33604e-15 0)
(3 -4.18433e-15 0)
(3 -5.21283e-15 0)
(3 -5.70589e-15 0)
(3 -4.34448e-15 0)
(3 -1.24173e-15 0)
(3 1.30462e-17 0)
(3 1.17921e-15 0)
(3 3.54967e-15 0)
(3 3.9435e-15 0)
(3 2.4731e-15 0)
(3 1.86116e-15 0)
(3 2.69065e-15 0)
(3 2.11301e-15 0)
(3 2.0244e-15 0)
(3 2.08677e-15 0)
(3 1.04336e-15 0)
(3 -1.01076e-15 0)
(3 -3.54786e-15 0)
(3 -1.77762e-15 0)
(3 4.08701e-16 0)
(3 -3.38201e-16 0)
(3 -1.81937e-15 0)
(3 -2.67527e-15 0)
(3 -2.81058e-15 0)
(3 -3.54514e-15 0)
(3 -6.63824e-15 0)
(3 -6.32473e-15 0)
(3 -2.88277e-15 0)
(3 -1.65596e-15 0)
(3 -5.86177e-16 0)
(3 6.53001e-16 0)
(3 1.03077e-15 0)
(3 6.12383e-18 0)
(3 1.77768e-16 0)
(3 9.38327e-17 0)
(3 -5.39165e-17 0)
(3 -4.393e-16 0)
(3 -5.75771e-16 0)
(3 -5.62481e-16 0)
(3 -6.89226e-16 0)
(3 -5.27584e-16 0)
(3 -1.99519e-16 0)
(3 1.09472e-16 0)
(3 6.16037e-17 0)
(3 2.02861e-16 0)
(3 1.19261e-16 0)
(3 2.77862e-17 0)
(3 -1.41423e-16 0)
(3 -7.83322e-17 0)
(3 1.77341e-16 0)
(3 4.71976e-16 0)
(3 6.62448e-16 0)
(3 9.32297e-17 0)
(3 -1.76319e-15 0)
(3 -3.48861e-15 0)
(3 -3.18554e-15 0)
(3 -2.19302e-15 0)
(3 5.25108e-16 0)
(3 2.03113e-15 0)
(3 9.86854e-16 0)
(3 9.42924e-16 0)
(3 7.3399e-16 0)
(3 2.90675e-16 0)
(3 6.05277e-16 0)
(3 1.02581e-15 0)
(3 9.40398e-16 0)
(3 9.95155e-16 0)
(3 9.52883e-16 0)
(3 1.29986e-15 0)
(3 1.5915e-15 0)
(3 -4.58986e-16 0)
(3 -1.00791e-15 0)
(3 -1.98292e-15 0)
(3 -1.91589e-15 0)
(3 -8.35354e-16 0)
(3 3.49962e-16 0)
(3 2.21423e-15 0)
(3 1.58793e-15 0)
(3 2.20057e-16 0)
(3 6.68378e-17 0)
(3 4.36272e-16 0)
(3 7.99512e-17 0)
(3 2.83602e-16 0)
(3 1.25752e-15 0)
(3 -8.09908e-16 0)
(3 -4.1667e-15 0)
(3 -4.97654e-15 0)
(3 -3.30324e-15 0)