/*--------------------------------*- C++ -*----------------------------------*\
  =========                 |
  \\      /  F ield         | OpenFOAM: The Open Source CFD Toolbox
   \\    /   O peration     | Website:  https://openfoam.org
    \\  /    A nd           | Version:  7
     \\/     M anipulation  |
\*---------------------------------------------------------------------------*/
FoamFile
{
    version     2.0;
    format      ascii;
    class       volVectorField;
    location    "2.8";
    object      U;
}
// * * * * * * * * * * * * * * * * * * * * * * * * * * * * * * * * * * * * * //

dimensions      [0 1 -1 0 0 0 0];

internalField   nonuniform List<vector> 
73728
(
(3 1.27527e-17 0)
(3 1.453e-16 0)
(3 6.92135e-17 0)
(3 -1.27782e-16 0)
(3 1.2052e-16 0)
(3 4.87368e-17 0)
(3 -4.13871e-16 0)
(3 -8.48069e-16 0)
(3 -6.71312e-16 0)
(3 -3.21824e-16 0)
(3 -1.31716e-17 0)
(3 8.27372e-16 0)
(3 1.14015e-15 0)
(3 9.43803e-16 0)
(3 1.01932e-15 0)
(3 3.8717e-16 0)
(3 2.23721e-16 0)
(3 1.36789e-16 0)
(3 2.26689e-16 0)
(3 3.72287e-16 0)
(3 3.31361e-16 0)
(3 2.50438e-16 0)
(3 4.03467e-16 0)
(3 7.13187e-16 0)
(3 1.04229e-15 0)
(3 1.08807e-15 0)
(3 2.80103e-16 0)
(3 -4.29846e-16 0)
(3 -1.02662e-15 0)
(3 -1.10167e-15 0)
(3 -3.91155e-16 0)
(3 -4.75501e-16 0)
(3 -9.0818e-16 0)
(3 -9.03688e-16 0)
(3 -5.41236e-16 0)
(3 -2.58982e-16 0)
(3 -2.00819e-17 0)
(3 5.60952e-20 0)
(3 -4.02475e-17 0)
(3 -3.68492e-16 0)
(3 -6.85552e-16 0)
(3 2.34718e-17 0)
(3 1.05799e-15 0)
(3 1.614e-15 0)
(3 2.06682e-15 0)
(3 1.85348e-15 0)
(3 6.16353e-16 0)
(3 1.39555e-16 0)
(3 -3.6621e-16 0)
(3 -1.26636e-16 0)
(3 1.40338e-16 0)
(3 2.20429e-16 0)
(3 2.35255e-17 0)
(3 -5.32602e-16 0)
(3 -6.75326e-16 0)
(3 -6.47549e-16 0)
(3 -7.37143e-16 0)
(3 -8.06008e-16 0)
(3 -6.80094e-16 0)
(3 -7.33515e-16 0)
(3 2.09077e-16 0)
(3 1.87093e-16 0)
(3 -4.20913e-16 0)
(3 -1.28929e-15 0)
(3 -8.04666e-16 0)
(3 -3.87354e-16 0)
(3 -4.64622e-16 0)
(3 -3.45777e-16 0)
(3 6.78049e-16 0)
(3 7.03395e-16 0)
(3 6.50658e-16 0)
(3 5.6405e-16 0)
(3 -2.32509e-16 0)
(3 -4.35371e-16 0)
(3 -6.79411e-16 0)
(3 -1.14807e-15 0)
(3 -1.15429e-15 0)
(3 -1.36495e-15 0)
(3 -1.09757e-15 0)
(3 -7.19295e-16 0)
(3 -1.46034e-16 0)
(3 4.98093e-16 0)
(3 5.80631e-16 0)
(3 1.52704e-16 0)
(3 -1.0426e-15 0)
(3 -1.69769e-15 0)
(3 -1.84149e-15 0)
(3 -1.78229e-15 0)
(3 -1.7388e-15 0)
(3 -1.01373e-15 0)
(3 -1.00283e-15 0)
(3 -1.49507e-15 0)
(3 -1.31844e-15 0)
(3 -8.72173e-16 0)
(3 -1.10026e-15 0)
(3 -1.17424e-15 0)
(3 -1.14182e-16 0)
(3 -2.20063e-18 0)
(3 -1.61254e-16 0)
(3 -4.48531e-16 0)
(3 -3.05642e-16 0)
(3 1.57966e-16 0)
(3 -3.12832e-17 0)
(3 -4.46799e-16 0)
(3 -3.72709e-16 0)
(3 8.70218e-17 0)
(3 3.74885e-16 0)
(3 9.60577e-16 0)
(3 1.13383e-15 0)
(3 1.1799e-15 0)
(3 1.12978e-15 0)
(3 1.52423e-15 0)
(3 1.45882e-15 0)
(3 1.03759e-15 0)
(3 8.50038e-16 0)
(3 3.8843e-16 0)
(3 1.80552e-16 0)
(3 1.71829e-16 0)
(3 6.67073e-16 0)
(3 8.8564e-16 0)
(3 1.13502e-15 0)
(3 1.33069e-15 0)
(3 2.4747e-16 0)
(3 -4.39742e-16 0)
(3 -1.38398e-15 0)
(3 -1.8229e-15 0)
(3 -4.81443e-16 0)
(3 -3.96009e-16 0)
(3 -6.80033e-16 0)
(3 -1.01852e-15 0)
(3 -8.75709e-16 0)
(3 -5.30711e-16 0)
(3 -4.19178e-16 0)
(3 -4.8555e-16 0)
(3 -6.01207e-16 0)
(3 -1.32692e-15 0)
(3 -1.35157e-15 0)
(3 9.82913e-19 0)
(3 1.66036e-15 0)
(3 2.79364e-15 0)
(3 2.95703e-15 0)
(3 1.82865e-15 0)
(3 -5.95116e-16 0)
(3 -1.13366e-15 0)
(3 -1.10906e-15 0)
(3 2.56851e-17 0)
(3 -1.46478e-16 0)
(3 -2.98182e-16 0)
(3 -5.59037e-17 0)
(3 -1.01258e-15 0)
(3 -1.50656e-15 0)
(3 -1.22741e-15 0)
(3 -1.5974e-15 0)
(3 -1.512e-15 0)
(3 -9.59423e-16 0)
(3 -4.51118e-16 0)
(3 -4.20711e-16 0)
(3 -8.72385e-16 0)
(3 -1.74075e-15 0)
(3 -2.09691e-15 0)
(3 -1.77043e-15 0)
(3 -6.7864e-16 0)
(3 -6.61322e-16 0)
(3 -7.12488e-16 0)
(3 -1.64218e-16 0)
(3 5.63917e-16 0)
(3 -5.54983e-16 0)
(3 -1.04211e-15 0)
(3 -8.48645e-16 0)
(3 -2.69747e-16 0)
(3 -4.26862e-16 0)
(3 -6.81721e-16 0)
(3 -9.37687e-16 0)
(3 -1.3706e-15 0)
(3 -1.00117e-15 0)
(3 -4.05744e-16 0)
(3 1.44224e-16 0)
(3 5.30534e-16 0)
(3 3.05107e-16 0)
(3 -1.63516e-16 0)
(3 -4.71547e-16 0)
(3 -1.53355e-15 0)
(3 -2.46612e-15 0)
(3 -3.30259e-15 0)
(3 -2.81049e-15 0)
(3 -1.52708e-15 0)
(3 -9.24457e-16 0)
(3 -2.12456e-15 0)
(3 -2.27385e-15 0)
(3 -1.23309e-15 0)
(3 -1.69309e-15 0)
(3 -1.65707e-15 0)
(3 -2.58935e-16 0)
(3 -3.62166e-16 0)
(3 -4.33309e-16 0)
(3 -6.38665e-16 0)
(3 -5.09236e-16 0)
(3 1.45208e-16 0)
(3 2.49085e-16 0)
(3 2.12993e-16 0)
(3 -8.1788e-17 0)
(3 -2.96898e-16 0)
(3 -3.80262e-16 0)
(3 -2.50355e-16 0)
(3 -3.12316e-16 0)
(3 -2.09274e-16 0)
(3 -3.61926e-16 0)
(3 7.13314e-16 0)
(3 1.34254e-15 0)
(3 9.60863e-16 0)
(3 3.58431e-16 0)
(3 -1.00006e-15 0)
(3 -1.15409e-15 0)
(3 -8.00915e-16 0)
(3 -3.33019e-16 0)
(3 5.11673e-17 0)
(3 -9.02267e-17 0)
(3 -4.6374e-16 0)
(3 -4.31485e-16 0)
(3 -2.75625e-16 0)
(3 -5.91924e-16 0)
(3 -3.93265e-16 0)
(3 6.05326e-16 0)
(3 1.25069e-17 0)
(3 -6.69351e-16 0)
(3 -1.03745e-15 0)
(3 -1.20423e-15 0)
(3 -9.03534e-16 0)
(3 -7.19178e-16 0)
(3 -3.4225e-16 0)
(3 -1.5601e-16 0)
(3 -3.32476e-16 0)
(3 -2.65863e-16 0)
(3 6.99822e-16 0)
(3 1.46499e-15 0)
(3 2.24926e-15 0)
(3 2.00072e-15 0)
(3 1.89394e-15 0)
(3 1.21969e-15 0)
(3 1.01325e-15 0)
(3 1.03312e-15 0)
(3 1.72421e-15 0)
(3 -9.75573e-17 0)
(3 -1.98297e-15 0)
(3 -1.85522e-15 0)
(3 -1.50187e-15 0)
(3 -1.14364e-15 0)
(3 -1.28642e-15 0)
(3 -1.41944e-15 0)
(3 -1.04464e-15 0)
(3 -5.55335e-16 0)
(3 5.71879e-17 0)
(3 2.87259e-17 0)
(3 -8.5752e-16 0)
(3 -1.23095e-15 0)
(3 -1.69991e-15 0)
(3 -1.4529e-15 0)
(3 -1.2978e-15 0)
(3 -1.01485e-15 0)
(3 -1.20978e-15 0)
(3 -1.66669e-15 0)
(3 -1.62031e-15 0)
(3 -1.55626e-15 0)
(3 -1.24018e-15 0)
(3 -8.70338e-16 0)
(3 -1.28222e-16 0)
(3 -8.56039e-17 0)
(3 -1.40792e-16 0)
(3 -7.53932e-16 0)
(3 -6.28089e-16 0)
(3 -6.9703e-17 0)
(3 6.33149e-16 0)
(3 4.16543e-16 0)
(3 4.32231e-16 0)
(3 -1.76901e-16 0)
(3 -5.03335e-16 0)
(3 -5.44609e-16 0)
(3 -8.74312e-16 0)
(3 -2.08186e-15 0)
(3 -3.1274e-15 0)
(3 -2.8965e-15 0)
(3 -1.65412e-15 0)
(3 -1.64138e-15 0)
(3 -2.04645e-15 0)
(3 -2.19555e-15 0)
(3 -1.76635e-15 0)
(3 -1.54508e-15 0)
(3 -1.62065e-15 0)
(3 1.27924e-17 0)
(3 1.34918e-16 0)
(3 8.14169e-17 0)
(3 7.35246e-17 0)
(3 7.71037e-16 0)
(3 1.19988e-15 0)
(3 2.79807e-16 0)
(3 -1.40891e-16 0)
(3 -4.27951e-16 0)
(3 -8.84821e-16 0)
(3 -1.49731e-15 0)
(3 -2.52761e-16 0)
(3 1.75913e-16 0)
(3 -1.69696e-16 0)
(3 -3.38539e-16 0)
(3 -9.34747e-17 0)
(3 8.725e-16 0)
(3 8.20984e-16 0)
(3 9.54124e-18 0)
(3 -9.70731e-16 0)
(3 -1.74715e-15 0)
(3 -1.4309e-15 0)
(3 -1.13872e-15 0)
(3 -9.32896e-16 0)
(3 -8.34012e-16 0)
(3 -7.44951e-16 0)
(3 -1.30732e-15 0)
(3 -1.39487e-15 0)
(3 -1.07932e-15 0)
(3 -2.43528e-16 0)
(3 -9.01724e-16 0)
(3 -9.40585e-16 0)
(3 -1.02925e-15 0)
(3 -1.079e-15 0)
(3 -7.24981e-16 0)
(3 -7.73207e-16 0)
(3 -4.11307e-16 0)
(3 3.76999e-16 0)
(3 8.09376e-16 0)
(3 1.07536e-15 0)
(3 4.2707e-16 0)
(3 3.45601e-16 0)
(3 4.51233e-16 0)
(3 8.4844e-16 0)
(3 1.09869e-15 0)
(3 1.72432e-15 0)
(3 1.6494e-15 0)
(3 1.49141e-15 0)
(3 1.42561e-15 0)
(3 8.22602e-16 0)
(3 -3.00244e-16 0)
(3 -1.13026e-15 0)
(3 -2.27595e-15 0)
(3 -1.90153e-15 0)
(3 -1.28655e-15 0)
(3 -1.98505e-15 0)
(3 -2.0115e-15 0)
(3 -1.55411e-15 0)
(3 -1.37498e-15 0)
(3 -8.46167e-16 0)
(3 -9.06077e-16 0)
(3 -1.48287e-15 0)
(3 -2.51045e-15 0)
(3 -2.51884e-15 0)
(3 -2.66132e-15 0)
(3 -2.93825e-15 0)
(3 -3.01674e-15 0)
(3 -3.13381e-15 0)
(3 -3.63947e-15 0)
(3 -3.84881e-15 0)
(3 -3.22902e-15 0)
(3 -1.47473e-15 0)
(3 -1.11384e-15 0)
(3 -6.19952e-16 0)
(3 -2.94358e-16 0)
(3 -8.7953e-16 0)
(3 -9.31011e-16 0)
(3 9.57694e-16 0)
(3 1.11476e-15 0)
(3 1.9375e-15 0)
(3 2.04455e-15 0)
(3 1.50492e-15 0)
(3 1.00661e-15 0)
(3 -2.66963e-16 0)
(3 -1.19116e-15 0)
(3 -1.32078e-15 0)
(3 -1.46681e-15 0)
(3 -1.40075e-15 0)
(3 -3.17944e-15 0)
(3 -3.90325e-15 0)
(3 -4.86998e-15 0)
(3 -3.25443e-15 0)
(3 -2.39186e-15 0)
(3 -1.70911e-15 0)
(3 -7.48693e-16 0)
(3 6.32182e-16 0)
(3 3.19199e-16 0)
(3 8.6556e-17 0)
(3 2.40616e-16 0)
(3 6.71886e-16 0)
(3 3.62714e-16 0)
(3 3.33139e-16 0)
(3 -2.01236e-16 0)
(3 -5.0739e-16 0)
(3 -6.61082e-16 0)
(3 -8.62423e-16 0)
(3 -9.90489e-16 0)
(3 -1.60967e-16 0)
(3 3.93474e-16 0)
(3 7.06262e-16 0)
(3 9.27646e-16 0)
(3 9.49762e-16 0)
(3 3.43144e-16 0)
(3 3.06627e-16 0)
(3 6.44428e-18 0)
(3 -5.09586e-16 0)
(3 -7.00236e-16 0)
(3 -7.4285e-16 0)
(3 -1.00432e-15 0)
(3 -1.18658e-15 0)
(3 -1.17959e-15 0)
(3 -1.08996e-15 0)
(3 -6.74523e-16 0)
(3 -7.73641e-16 0)
(3 -4.14606e-16 0)
(3 -1.78908e-16 0)
(3 -6.90671e-16 0)
(3 -1.00444e-15 0)
(3 -6.12973e-16 0)
(3 -2.0395e-16 0)
(3 -3.23079e-16 0)
(3 -2.18842e-16 0)
(3 -5.68582e-16 0)
(3 -7.86613e-16 0)
(3 1.83891e-16 0)
(3 5.55291e-16 0)
(3 3.06864e-16 0)
(3 1.64386e-16 0)
(3 9.26289e-16 0)
(3 1.51594e-15 0)
(3 1.28716e-15 0)
(3 5.37691e-16 0)
(3 1.37772e-16 0)
(3 4.92625e-17 0)
(3 -7.33367e-16 0)
(3 -6.37303e-16 0)
(3 1.24426e-16 0)
(3 1.69547e-16 0)
(3 -6.66343e-16 0)
(3 -7.6846e-16 0)
(3 -5.80546e-16 0)
(3 -4.99935e-16 0)
(3 -1.21003e-15 0)
(3 -1.45469e-15 0)
(3 -1.9199e-15 0)
(3 -1.63096e-15 0)
(3 -1.47218e-15 0)
(3 -2.62128e-15 0)
(3 -3.0838e-15 0)
(3 -2.96514e-15 0)
(3 -2.96618e-15 0)
(3 -2.73289e-15 0)
(3 -2.87508e-15 0)
(3 -2.64489e-15 0)
(3 -2.85844e-15 0)
(3 -2.71685e-15 0)
(3 -2.26637e-15 0)
(3 -1.63942e-15 0)
(3 -1.11141e-15 0)
(3 -1.31072e-16 0)
(3 8.51008e-16 0)
(3 1.35779e-15 0)
(3 1.89257e-15 0)
(3 1.352e-15 0)
(3 1.07704e-15 0)
(3 1.24341e-15 0)
(3 1.2986e-15 0)
(3 1.31095e-15 0)
(3 1.45806e-15 0)
(3 8.83892e-16 0)
(3 -6.84549e-16 0)
(3 -6.70531e-16 0)
(3 -5.63491e-16 0)
(3 -3.69808e-16 0)
(3 -2.41682e-15 0)
(3 -5.47581e-15 0)
(3 -6.19025e-15 0)
(3 -5.09493e-15 0)
(3 -2.95526e-15 0)
(3 -8.33083e-16 0)
(3 -4.43978e-16 0)
(3 1.61475e-15 0)
(3 -4.7784e-18 0)
(3 -2.40623e-16 0)
(3 -1.23954e-16 0)
(3 -1.45974e-16 0)
(3 -8.67008e-16 0)
(3 -1.23548e-15 0)
(3 -5.5163e-16 0)
(3 -1.16249e-15 0)
(3 -1.17143e-15 0)
(3 -1.23741e-15 0)
(3 -9.13513e-16 0)
(3 -5.2249e-16 0)
(3 -5.31879e-16 0)
(3 7.1532e-16 0)
(3 1.22317e-15 0)
(3 -8.31087e-17 0)
(3 -1.54664e-15 0)
(3 -1.64281e-15 0)
(3 -1.30935e-15 0)
(3 -1.16871e-15 0)
(3 -8.71454e-17 0)
(3 7.93764e-16 0)
(3 6.2671e-16 0)
(3 1.64981e-16 0)
(3 -7.20847e-16 0)
(3 -1.55479e-15 0)
(3 -5.28897e-16 0)
(3 -3.42282e-16 0)
(3 -2.1398e-16 0)
(3 -5.5669e-16 0)
(3 -4.59603e-16 0)
(3 -5.49329e-16 0)
(3 -8.24487e-16 0)
(3 -1.35e-15 0)
(3 -1.38244e-15 0)
(3 -7.78284e-16 0)
(3 -1.05116e-15 0)
(3 -1.08419e-15 0)
(3 -5.9241e-16 0)
(3 -9.76704e-18 0)
(3 -3.58225e-17 0)
(3 2.25358e-16 0)
(3 2.43451e-15 0)
(3 2.99646e-15 0)
(3 1.16703e-15 0)
(3 4.60825e-16 0)
(3 7.34787e-16 0)
(3 5.6005e-16 0)
(3 -5.9939e-17 0)
(3 -7.30241e-17 0)
(3 1.98991e-16 0)
(3 5.22281e-16 0)
(3 7.9749e-16 0)
(3 7.77737e-16 0)
(3 7.01097e-16 0)
(3 4.38961e-16 0)
(3 3.32504e-17 0)
(3 -1.64026e-15 0)
(3 -2.45001e-15 0)
(3 -2.59188e-15 0)
(3 -2.465e-15 0)
(3 -2.50061e-15 0)
(3 -2.37334e-15 0)
(3 -2.12432e-15 0)
(3 -2.03686e-15 0)
(3 -1.8804e-15 0)
(3 -1.9357e-15 0)
(3 -1.95793e-15 0)
(3 -1.90987e-15 0)
(3 -1.75884e-15 0)
(3 -1.24722e-15 0)
(3 -4.66188e-16 0)
(3 3.48436e-16 0)
(3 7.20328e-16 0)
(3 6.96599e-16 0)
(3 1.60414e-15 0)
(3 1.76614e-15 0)
(3 1.43265e-15 0)
(3 1.67052e-15 0)
(3 1.11322e-15 0)
(3 3.21602e-16 0)
(3 5.6861e-16 0)
(3 1.13179e-15 0)
(3 9.08058e-16 0)
(3 7.15239e-16 0)
(3 3.7233e-16 0)
(3 2.76224e-16 0)
(3 -2.43588e-16 0)
(3 -1.08582e-15 0)
(3 -2.42345e-15 0)
(3 -2.48826e-15 0)
(3 -1.81207e-15 0)
(3 -1.43381e-15 0)
(3 -1.27626e-15 0)
(3 -8.94602e-16 0)
(3 1.01575e-16 0)
(3 1.63037e-17 0)
(3 3.23029e-16 0)
(3 7.59696e-17 0)
(3 -2.59776e-16 0)
(3 -3.2946e-16 0)
(3 -4.39831e-16 0)
(3 -8.7142e-16 0)
(3 -1.12631e-15 0)
(3 -8.56648e-16 0)
(3 -3.27109e-16 0)
(3 -1.0485e-16 0)
(3 -2.37074e-16 0)
(3 -5.42617e-16 0)
(3 3.15713e-16 0)
(3 3.19371e-16 0)
(3 -9.01016e-16 0)
(3 -1.17748e-15 0)
(3 -1.54386e-15 0)
(3 -1.32684e-15 0)
(3 -9.57623e-16 0)
(3 -3.18262e-17 0)
(3 1.44873e-15 0)
(3 1.35667e-15 0)
(3 6.28316e-16 0)
(3 -8.42022e-17 0)
(3 -3.9429e-16 0)
(3 -3.35065e-16 0)
(3 -2.64857e-16 0)
(3 -7.72695e-16 0)
(3 -1.05222e-15 0)
(3 -7.18322e-16 0)
(3 2.50555e-16 0)
(3 -1.53417e-16 0)
(3 -1.60085e-15 0)
(3 -1.78646e-15 0)
(3 -2.28492e-15 0)
(3 -1.05785e-15 0)
(3 -4.82116e-16 0)
(3 -3.79781e-16 0)
(3 -5.37069e-16 0)
(3 -7.01018e-16 0)
(3 3.07542e-16 0)
(3 5.55911e-16 0)
(3 9.956e-16 0)
(3 1.80469e-15 0)
(3 2.26328e-15 0)
(3 1.97495e-15 0)
(3 1.77539e-15 0)
(3 1.90549e-15 0)
(3 1.86528e-15 0)
(3 1.63109e-15 0)
(3 1.32991e-15 0)
(3 1.04697e-15 0)
(3 1.08448e-15 0)
(3 1.3463e-15 0)
(3 1.62781e-15 0)
(3 7.32234e-16 0)
(3 2.86921e-16 0)
(3 6.77782e-17 0)
(3 -9.20607e-16 0)
(3 -1.61611e-15 0)
(3 -1.28926e-15 0)
(3 -5.99351e-16 0)
(3 -6.32753e-16 0)
(3 -3.83504e-16 0)
(3 -2.07145e-16 0)
(3 -2.86665e-16 0)
(3 -8.49933e-16 0)
(3 -1.18333e-15 0)
(3 -1.38689e-15 0)
(3 -4.03296e-16 0)
(3 1.85988e-16 0)
(3 9.05919e-16 0)
(3 4.12787e-16 0)
(3 1.5024e-16 0)
(3 4.7942e-16 0)
(3 5.46174e-16 0)
(3 1.1438e-15 0)
(3 1.56888e-15 0)
(3 1.67508e-15 0)
(3 5.81699e-16 0)
(3 -2.07729e-16 0)
(3 -9.00833e-16 0)
(3 -3.3987e-16 0)
(3 6.40057e-17 0)
(3 4.71914e-16 0)
(3 1.05193e-15 0)
(3 4.01723e-16 0)
(3 -8.3797e-16 0)
(3 -3.99492e-16 0)
(3 5.62481e-16 0)
(3 1.43002e-15 0)
(3 1.69514e-15 0)
(3 4.78629e-16 0)
(3 -5.47831e-16 0)
(3 -5.60628e-16 0)
(3 1.6232e-16 0)
(3 -1.43027e-16 0)
(3 -3.17578e-16 0)
(3 1.03507e-16 0)
(3 2.00665e-16 0)
(3 -3.39795e-16 0)
(3 -1.65486e-15 0)
(3 -1.82809e-15 0)
(3 -1.47926e-15 0)
(3 -2.52245e-16 0)
(3 3.56669e-16 0)
(3 1.14357e-16 0)
(3 -2.05404e-16 0)
(3 -6.4654e-16 0)
(3 -5.05975e-16 0)
(3 -9.97398e-17 0)
(3 -7.73261e-17 0)
(3 2.25507e-16 0)
(3 6.89341e-17 0)
(3 3.01741e-17 0)
(3 4.91785e-17 0)
(3 1.6484e-16 0)
(3 6.06355e-16 0)
(3 1.0457e-15 0)
(3 9.97929e-16 0)
(3 5.96719e-16 0)
(3 1.95169e-16 0)
(3 2.35853e-16 0)
(3 1.44479e-16 0)
(3 1.65784e-16 0)
(3 3.23817e-16 0)
(3 1.11488e-15 0)
(3 8.88961e-16 0)
(3 4.32639e-17 0)
(3 -9.0696e-16 0)
(3 -7.8268e-16 0)
(3 -3.252e-16 0)
(3 6.82168e-16 0)
(3 9.35155e-16 0)
(3 7.13667e-16 0)
(3 1.35622e-15 0)
(3 5.14999e-16 0)
(3 -1.60563e-17 0)
(3 3.46653e-16 0)
(3 1.47336e-15 0)
(3 2.20362e-15 0)
(3 2.15798e-15 0)
(3 2.19261e-15 0)
(3 2.97731e-15 0)
(3 2.75682e-15 0)
(3 2.44446e-15 0)
(3 1.51377e-15 0)
(3 1.0644e-15 0)
(3 1.09618e-15 0)
(3 1.39596e-15 0)
(3 2.26522e-15 0)
(3 2.54129e-15 0)
(3 2.44682e-15 0)
(3 2.34961e-15 0)
(3 1.77103e-15 0)
(3 8.90736e-16 0)
(3 3.00581e-16 0)
(3 1.82322e-16 0)
(3 2.85138e-17 0)
(3 8.03919e-17 0)
(3 1.65361e-16 0)
(3 1.42682e-16 0)
(3 -1.11715e-16 0)
(3 -7.30985e-16 0)
(3 -1.11131e-15 0)
(3 -6.87347e-16 0)
(3 1.76136e-17 0)
(3 3.03185e-16 0)
(3 3.44398e-16 0)
(3 6.79134e-16 0)
(3 1.00545e-15 0)
(3 1.30904e-15 0)
(3 1.41207e-15 0)
(3 7.26957e-16 0)
(3 1.38083e-16 0)
(3 -5.43578e-16 0)
(3 -1.70509e-15 0)
(3 -1.60601e-15 0)
(3 -1.23926e-15 0)
(3 -9.72301e-16 0)
(3 -7.7029e-16 0)
(3 -1.56967e-16 0)
(3 8.8603e-17 0)
(3 -7.07926e-16 0)
(3 3.50221e-16 0)
(3 2.60192e-15 0)
(3 3.15008e-15 0)
(3 3.3747e-15 0)
(3 1.83259e-15 0)
(3 1.04005e-15 0)
(3 -2.00759e-16 0)
(3 -3.72648e-16 0)
(3 -8.18182e-16 0)
(3 -7.21746e-16 0)
(3 -2.88429e-16 0)
(3 -4.95732e-16 0)
(3 -1.37342e-15 0)
(3 -1.0037e-15 0)
(3 -1.02272e-15 0)
(3 -6.54696e-16 0)
(3 1.08924e-16 0)
(3 5.96517e-18 0)
(3 -6.0643e-16 0)
(3 -9.48977e-16 0)
(3 -1.23762e-15 0)
(3 -9.83247e-16 0)
(3 2.81729e-16 0)
(3 4.12976e-16 0)
(3 6.69084e-16 0)
(3 8.47157e-16 0)
(3 1.0285e-15 0)
(3 3.17941e-16 0)
(3 -4.36627e-16 0)
(3 -4.33973e-16 0)
(3 -4.41802e-16 0)
(3 -9.6396e-16 0)
(3 -7.09478e-16 0)
(3 -3.94819e-16 0)
(3 -2.77841e-16 0)
(3 4.58076e-16 0)
(3 9.20093e-16 0)
(3 9.68068e-16 0)
(3 -2.85584e-17 0)
(3 1.6129e-16 0)
(3 8.34756e-16 0)
(3 1.25388e-15 0)
(3 1.41631e-15 0)
(3 2.08944e-16 0)
(3 2.74487e-16 0)
(3 4.8798e-16 0)
(3 1.58434e-15 0)
(3 2.49593e-15 0)
(3 1.89455e-15 0)
(3 1.53172e-15 0)
(3 1.07538e-15 0)
(3 1.12649e-15 0)
(3 1.15688e-15 0)
(3 1.43753e-15 0)
(3 1.51883e-15 0)
(3 1.40518e-15 0)
(3 1.64895e-15 0)
(3 1.56711e-15 0)
(3 1.49258e-15 0)
(3 1.28502e-15 0)
(3 8.91386e-16 0)
(3 9.14845e-16 0)
(3 1.85875e-15 0)
(3 2.49965e-15 0)
(3 2.11648e-15 0)
(3 1.79077e-15 0)
(3 1.63998e-15 0)
(3 1.17788e-15 0)
(3 1.14115e-15 0)
(3 7.21477e-16 0)
(3 -1.29534e-16 0)
(3 -6.8596e-17 0)
(3 -4.42442e-16 0)
(3 -1.05713e-15 0)
(3 -1.44094e-15 0)
(3 -1.27592e-15 0)
(3 -7.44425e-16 0)
(3 -5.0868e-16 0)
(3 -6.03155e-16 0)
(3 -1.23466e-15 0)
(3 -1.524e-16 0)
(3 6.41403e-16 0)
(3 1.67154e-15 0)
(3 2.22413e-15 0)
(3 2.91559e-15 0)
(3 3.3143e-15 0)
(3 2.21757e-15 0)
(3 5.84129e-16 0)
(3 6.38096e-17 0)
(3 -6.47758e-16 0)
(3 -1.66345e-15 0)
(3 -1.76713e-15 0)
(3 -1.91391e-15 0)
(3 -1.831e-15 0)
(3 -6.75606e-16 0)
(3 -2.46722e-17 0)
(3 1.35012e-15 0)
(3 2.46229e-15 0)
(3 2.85545e-15 0)
(3 2.49993e-15 0)
(3 1.50695e-15 0)
(3 6.20329e-16 0)
(3 5.98022e-17 0)
(3 -1.10174e-16 0)
(3 4.84787e-16 0)
(3 8.41614e-16 0)
(3 7.6919e-16 0)
(3 -1.44025e-16 0)
(3 2.95566e-17 0)
(3 1.95746e-16 0)
(3 2.60611e-16 0)
(3 1.00585e-15 0)
(3 1.4538e-15 0)
(3 4.41105e-16 0)
(3 -6.788e-16 0)
(3 -1.13761e-15 0)
(3 -4.6108e-16 0)
(3 -8.32371e-16 0)
(3 -4.20109e-16 0)
(3 2.64658e-16 0)
(3 4.13885e-16 0)
(3 8.61938e-16 0)
(3 1.32671e-15 0)
(3 7.29026e-16 0)
(3 -2.19603e-16 0)
(3 -6.25565e-16 0)
(3 -1.29833e-15 0)
(3 -2.35641e-15 0)
(3 -2.60474e-15 0)
(3 -1.50759e-15 0)
(3 -1.35531e-15 0)
(3 -4.9302e-16 0)
(3 2.46846e-16 0)
(3 -1.3157e-16 0)
(3 -4.33397e-16 0)
(3 4.63136e-16 0)
(3 2.11988e-15 0)
(3 2.48853e-15 0)
(3 1.98752e-15 0)
(3 6.53372e-16 0)
(3 4.07312e-16 0)
(3 8.32491e-16 0)
(3 2.33289e-15 0)
(3 2.43981e-15 0)
(3 2.15223e-15 0)
(3 1.47988e-15 0)
(3 1.34882e-15 0)
(3 1.25993e-15 0)
(3 1.00337e-15 0)
(3 5.20789e-16 0)
(3 1.34857e-16 0)
(3 -2.62876e-16 0)
(3 9.14716e-18 0)
(3 3.14009e-16 0)
(3 9.06527e-16 0)
(3 1.292e-15 0)
(3 7.09278e-16 0)
(3 -2.80673e-16 0)
(3 -3.29462e-17 0)
(3 2.87222e-16 0)
(3 6.64688e-16 0)
(3 2.20027e-16 0)
(3 -1.39149e-16 0)
(3 -2.42111e-16 0)
(3 1.14299e-15 0)
(3 1.9588e-15 0)
(3 1.14616e-15 0)
(3 3.55119e-16 0)
(3 -2.41664e-16 0)
(3 -6.72255e-16 0)
(3 -8.28899e-16 0)
(3 -5.08114e-16 0)
(3 -1.84071e-16 0)
(3 1.37423e-16 0)
(3 -2.69433e-16 0)
(3 -9.7059e-16 0)
(3 -6.23087e-16 0)
(3 -6.53976e-16 0)
(3 -6.89786e-16 0)
(3 -5.70217e-16 0)
(3 -7.2724e-17 0)
(3 5.89957e-16 0)
(3 -2.62871e-16 0)
(3 -8.45618e-16 0)
(3 -1.10392e-15 0)
(3 -5.6633e-16 0)
(3 -8.35926e-16 0)
(3 -1.05015e-15 0)
(3 -6.73069e-16 0)
(3 1.639e-16 0)
(3 1.41647e-15 0)
(3 2.34739e-15 0)
(3 2.05331e-15 0)
(3 1.79822e-15 0)
(3 8.24976e-16 0)
(3 -5.75657e-16 0)
(3 -1.02375e-15 0)
(3 -8.61502e-16 0)
(3 -6.06929e-16 0)
(3 1.40254e-16 0)
(3 6.19528e-16 0)
(3 6.17969e-16 0)
(3 3.44308e-16 0)
(3 1.10482e-15 0)
(3 9.366e-16 0)
(3 4.86384e-16 0)
(3 5.75813e-16 0)
(3 2.56148e-16 0)
(3 1.0289e-17 0)
(3 3.80951e-16 0)
(3 3.94265e-16 0)
(3 4.22832e-16 0)
(3 4.77476e-16 0)
(3 1.69278e-16 0)
(3 -8.05414e-16 0)
(3 -6.08201e-16 0)
(3 5.15183e-16 0)
(3 7.58686e-16 0)
(3 8.3475e-16 0)
(3 4.74962e-16 0)
(3 -5.89362e-16 0)
(3 -1.44278e-15 0)
(3 -2.01988e-15 0)
(3 -2.94367e-15 0)
(3 -2.20125e-15 0)
(3 -1.76523e-15 0)
(3 -1.11626e-15 0)
(3 -4.99676e-16 0)
(3 5.17381e-16 0)
(3 7.52012e-16 0)
(3 1.30076e-15 0)
(3 1.71255e-15 0)
(3 1.49614e-15 0)
(3 8.03983e-16 0)
(3 1.57113e-15 0)
(3 2.7917e-15 0)
(3 2.55514e-15 0)
(3 2.59026e-15 0)
(3 2.70392e-15 0)
(3 2.44209e-15 0)
(3 2.8184e-15 0)
(3 2.55633e-15 0)
(3 1.9165e-15 0)
(3 9.98034e-16 0)
(3 8.7264e-16 0)
(3 2.02801e-16 0)
(3 -1.14988e-15 0)
(3 -1.82011e-15 0)
(3 -1.49329e-15 0)
(3 -5.69048e-16 0)
(3 -2.75667e-16 0)
(3 1.44672e-16 0)
(3 5.81825e-16 0)
(3 -6.54458e-16 0)
(3 -1.87275e-15 0)
(3 -1.63367e-15 0)
(3 1.9978e-16 0)
(3 6.07924e-16 0)
(3 -3.96587e-16 0)
(3 -5.28596e-16 0)
(3 5.19698e-16 0)
(3 1.34169e-15 0)
(3 1.98345e-15 0)
(3 1.74623e-15 0)
(3 1.27166e-15 0)
(3 7.70692e-16 0)
(3 6.62717e-16 0)
(3 -2.23341e-16 0)
(3 -5.74315e-16 0)
(3 -4.80278e-16 0)
(3 -1.62982e-16 0)
(3 -1.27126e-16 0)
(3 -3.84517e-16 0)
(3 -7.8369e-16 0)
(3 -2.34104e-15 0)
(3 -2.542e-15 0)
(3 -3.1104e-15 0)
(3 -3.41909e-15 0)
(3 -2.82847e-15 0)
(3 -2.74092e-15 0)
(3 -2.63498e-15 0)
(3 -1.10976e-15 0)
(3 4.15454e-16 0)
(3 5.45357e-16 0)
(3 1.20285e-15 0)
(3 3.06666e-15 0)
(3 5.1137e-15 0)
(3 6.08644e-15 0)
(3 3.21213e-15 0)
(3 1.26199e-15 0)
(3 -2.24572e-15 0)
(3 -3.87069e-15 0)
(3 -3.02688e-15 0)
(3 -2.03541e-15 0)
(3 -1.7902e-15 0)
(3 -1.26597e-16 0)
(3 -4.09323e-16 0)
(3 -4.09766e-16 0)
(3 -5.51527e-16 0)
(3 2.94156e-17 0)
(3 -9.54359e-17 0)
(3 -1.00714e-16 0)
(3 -2.395e-16 0)
(3 -2.54436e-16 0)
(3 -1.92278e-16 0)
(3 1.42177e-16 0)
(3 6.02732e-16 0)
(3 1.0413e-15 0)
(3 9.96414e-16 0)
(3 3.20827e-16 0)
(3 -1.64692e-15 0)
(3 -1.08458e-15 0)
(3 -3.97959e-16 0)
(3 -2.31771e-16 0)
(3 -8.90018e-16 0)
(3 -1.13537e-15 0)
(3 -1.37038e-15 0)
(3 -1.91745e-15 0)
(3 -2.50855e-15 0)
(3 -3.26711e-15 0)
(3 -2.92272e-15 0)
(3 -2.39077e-15 0)
(3 -1.7815e-15 0)
(3 -7.83861e-16 0)
(3 4.26914e-16 0)
(3 1.29181e-15 0)
(3 1.53794e-15 0)
(3 8.01236e-16 0)
(3 4.96809e-16 0)
(3 6.64197e-16 0)
(3 1.7397e-15 0)
(3 3.11245e-15 0)
(3 3.29921e-15 0)
(3 2.35611e-15 0)
(3 1.53481e-15 0)
(3 1.28465e-15 0)
(3 1.78339e-15 0)
(3 2.28007e-15 0)
(3 1.56974e-16 0)
(3 -7.86209e-16 0)
(3 -8.15151e-16 0)
(3 -6.61668e-16 0)
(3 -9.86963e-16 0)
(3 -1.41041e-15 0)
(3 -8.94385e-16 0)
(3 -4.91358e-16 0)
(3 -1.65109e-16 0)
(3 2.29572e-16 0)
(3 5.79658e-16 0)
(3 -1.93439e-16 0)
(3 -1.24237e-15 0)
(3 -1.01986e-15 0)
(3 -9.01313e-16 0)
(3 -1.01921e-15 0)
(3 7.80372e-16 0)
(3 8.60481e-16 0)
(3 1.00981e-15 0)
(3 1.10298e-15 0)
(3 1.45693e-15 0)
(3 1.69962e-15 0)
(3 1.04203e-15 0)
(3 2.16667e-16 0)
(3 -1.54239e-16 0)
(3 -5.59086e-16 0)
(3 -3.87117e-16 0)
(3 3.36088e-17 0)
(3 1.58082e-16 0)
(3 6.82028e-16 0)
(3 1.25546e-15 0)
(3 8.59246e-16 0)
(3 -9.13448e-16 0)
(3 -2.1778e-15 0)
(3 -3.04991e-15 0)
(3 -3.52388e-15 0)
(3 -2.65324e-15 0)
(3 -1.69094e-15 0)
(3 -1.25171e-15 0)
(3 -4.85547e-16 0)
(3 2.69905e-16 0)
(3 1.0974e-15 0)
(3 2.44737e-15 0)
(3 3.73487e-15 0)
(3 4.83412e-15 0)
(3 5.09811e-15 0)
(3 3.88831e-15 0)
(3 2.15392e-15 0)
(3 3.7699e-16 0)
(3 -9.44963e-16 0)
(3 -1.31454e-15 0)
(3 -1.41945e-15 0)
(3 -1.35293e-15 0)
(3 1.46101e-17 0)
(3 -2.27297e-16 0)
(3 4.72385e-16 0)
(3 3.52879e-16 0)
(3 5.76969e-16 0)
(3 7.3685e-16 0)
(3 5.97785e-16 0)
(3 6.45006e-16 0)
(3 1.05728e-15 0)
(3 8.2916e-16 0)
(3 -7.27734e-17 0)
(3 -1.45113e-16 0)
(3 -3.50907e-17 0)
(3 9.44832e-17 0)
(3 -3.15549e-16 0)
(3 -9.30949e-16 0)
(3 -8.90002e-16 0)
(3 -5.45576e-16 0)
(3 -4.60901e-16 0)
(3 -1.12812e-15 0)
(3 -9.77736e-16 0)
(3 -8.44064e-16 0)
(3 -1.13404e-15 0)
(3 -1.30066e-15 0)
(3 -1.98233e-15 0)
(3 -2.41238e-15 0)
(3 -2.18694e-15 0)
(3 -1.39432e-15 0)
(3 -7.8337e-16 0)
(3 1.00584e-16 0)
(3 6.25955e-16 0)
(3 1.00177e-15 0)
(3 8.20655e-16 0)
(3 8.39323e-16 0)
(3 1.22171e-15 0)
(3 1.96222e-15 0)
(3 1.38382e-15 0)
(3 1.07365e-15 0)
(3 6.55984e-16 0)
(3 7.16669e-16 0)
(3 8.03164e-17 0)
(3 -7.14734e-16 0)
(3 -7.76697e-16 0)
(3 -3.6944e-16 0)
(3 -1.66906e-16 0)
(3 -1.59575e-16 0)
(3 -4.37252e-16 0)
(3 -1.03802e-15 0)
(3 -7.78234e-16 0)
(3 -1.05916e-15 0)
(3 -1.27829e-15 0)
(3 -1.01302e-15 0)
(3 2.48676e-16 0)
(3 6.12924e-16 0)
(3 5.45732e-16 0)
(3 5.25455e-16 0)
(3 -8.00218e-16 0)
(3 -1.73979e-15 0)
(3 -1.47353e-15 0)
(3 4.74587e-17 0)
(3 2.07287e-15 0)
(3 2.34255e-15 0)
(3 1.79908e-15 0)
(3 1.24281e-15 0)
(3 1.2288e-15 0)
(3 9.7125e-16 0)
(3 1.25328e-15 0)
(3 1.1797e-15 0)
(3 7.63419e-16 0)
(3 8.56851e-16 0)
(3 1.03092e-15 0)
(3 7.20796e-16 0)
(3 3.01797e-16 0)
(3 4.45744e-16 0)
(3 4.44536e-16 0)
(3 -4.06792e-16 0)
(3 -1.18898e-15 0)
(3 -1.74762e-15 0)
(3 -1.79048e-15 0)
(3 -2.43502e-15 0)
(3 -2.29233e-15 0)
(3 -6.34266e-16 0)
(3 1.0815e-15 0)
(3 1.52469e-15 0)
(3 1.99722e-15 0)
(3 2.29928e-15 0)
(3 2.71531e-15 0)
(3 3.5162e-15 0)
(3 3.59689e-15 0)
(3 3.07344e-15 0)
(3 1.93496e-15 0)
(3 5.80846e-16 0)
(3 -7.61564e-16 0)
(3 -8.05267e-16 0)
(3 -6.43105e-16 0)
(3 4.5248e-16 0)
(3 3.03668e-16 0)
(3 8.19925e-16 0)
(3 9.5302e-16 0)
(3 1.07886e-15 0)
(3 1.58725e-15 0)
(3 1.60608e-15 0)
(3 1.66233e-15 0)
(3 1.80699e-15 0)
(3 1.28377e-15 0)
(3 5.84564e-16 0)
(3 5.12912e-17 0)
(3 -5.18827e-17 0)
(3 -2.94965e-16 0)
(3 -5.85286e-16 0)
(3 -1.29188e-15 0)
(3 -1.07127e-15 0)
(3 -6.96896e-16 0)
(3 -5.3778e-16 0)
(3 -2.31799e-16 0)
(3 -1.38087e-16 0)
(3 -3.53408e-16 0)
(3 -1.2271e-15 0)
(3 -1.49915e-15 0)
(3 -1.50942e-15 0)
(3 -1.12061e-15 0)
(3 -1.31834e-15 0)
(3 -2.19869e-15 0)
(3 -1.13014e-15 0)
(3 6.10177e-16 0)
(3 5.31285e-16 0)
(3 8.81928e-16 0)
(3 8.58269e-16 0)
(3 1.05634e-15 0)
(3 1.01482e-15 0)
(3 1.06282e-15 0)
(3 7.19761e-16 0)
(3 -5.81789e-18 0)
(3 2.24201e-17 0)
(3 2.36058e-16 0)
(3 -6.01789e-16 0)
(3 -8.64757e-16 0)
(3 -7.12214e-16 0)
(3 -7.87349e-16 0)
(3 -7.01173e-16 0)
(3 -1.06727e-15 0)
(3 -9.9125e-16 0)
(3 -2.61405e-16 0)
(3 1.41418e-16 0)
(3 2.48745e-16 0)
(3 -1.48135e-16 0)
(3 -1.32137e-16 0)
(3 -1.25613e-16 0)
(3 1.82833e-17 0)
(3 -1.70674e-16 0)
(3 9.16832e-16 0)
(3 9.93713e-16 0)
(3 -2.05223e-16 0)
(3 7.96266e-17 0)
(3 7.23542e-16 0)
(3 1.54974e-15 0)
(3 2.29004e-15 0)
(3 2.22938e-15 0)
(3 1.80497e-15 0)
(3 1.85962e-16 0)
(3 -1.28111e-16 0)
(3 7.24298e-16 0)
(3 1.62564e-15 0)
(3 1.79222e-15 0)
(3 1.65505e-15 0)
(3 1.73734e-15 0)
(3 1.86371e-15 0)
(3 2.10061e-15 0)
(3 1.92906e-15 0)
(3 7.66365e-16 0)
(3 -2.06421e-16 0)
(3 -3.79895e-16 0)
(3 -3.83468e-16 0)
(3 -7.84537e-16 0)
(3 -1.1468e-15 0)
(3 -4.91143e-16 0)
(3 4.43885e-16 0)
(3 2.11683e-15 0)
(3 2.31749e-15 0)
(3 2.72474e-15 0)
(3 2.58766e-15 0)
(3 2.27116e-15 0)
(3 2.24729e-15 0)
(3 2.03797e-15 0)
(3 1.95547e-15 0)
(3 1.12568e-15 0)
(3 2.01398e-17 0)
(3 -6.56229e-16 0)
(3 -4.93147e-16 0)
(3 1.55194e-16 0)
(3 5.26637e-16 0)
(3 1.25051e-15 0)
(3 -2.09302e-16 0)
(3 2.56634e-17 0)
(3 -2.84809e-16 0)
(3 1.09119e-16 0)
(3 1.33656e-16 0)
(3 4.18996e-16 0)
(3 6.50895e-16 0)
(3 1.72816e-16 0)
(3 -9.12779e-16 0)
(3 -7.03082e-16 0)
(3 -2.84111e-16 0)
(3 1.14131e-16 0)
(3 1.19817e-16 0)
(3 -6.19504e-16 0)
(3 -1.47565e-15 0)
(3 -1.18864e-15 0)
(3 -1.00326e-15 0)
(3 -1.31889e-15 0)
(3 -9.34259e-16 0)
(3 -3.30383e-16 0)
(3 -6.54002e-16 0)
(3 -7.39855e-16 0)
(3 -1.04209e-15 0)
(3 -1.78349e-15 0)
(3 -8.91306e-16 0)
(3 -4.304e-16 0)
(3 -4.39475e-16 0)
(3 6.79891e-18 0)
(3 2.45667e-16 0)
(3 2.93216e-16 0)
(3 2.96684e-16 0)
(3 -2.16333e-17 0)
(3 6.1283e-16 0)
(3 1.04834e-15 0)
(3 6.7019e-16 0)
(3 -1.59163e-16 0)
(3 -1.04015e-16 0)
(3 -1.70926e-16 0)
(3 -7.10252e-16 0)
(3 -9.26778e-16 0)
(3 -1.01173e-15 0)
(3 -9.74498e-16 0)
(3 -1.45484e-15 0)
(3 -1.83877e-15 0)
(3 -1.92368e-15 0)
(3 -1.50554e-15 0)
(3 -1.27036e-15 0)
(3 1.99617e-16 0)
(3 9.35479e-16 0)
(3 1.44622e-15 0)
(3 1.59107e-15 0)
(3 1.41635e-15 0)
(3 1.06048e-15 0)
(3 9.00014e-16 0)
(3 1.42667e-15 0)
(3 1.47407e-15 0)
(3 9.6173e-16 0)
(3 1.40724e-15 0)
(3 1.90859e-15 0)
(3 1.99142e-15 0)
(3 2.0184e-15 0)
(3 1.90717e-15 0)
(3 8.64367e-16 0)
(3 -4.15503e-16 0)
(3 -8.51565e-16 0)
(3 -5.71734e-16 0)
(3 -1.72899e-16 0)
(3 8.17111e-16 0)
(3 1.67422e-15 0)
(3 2.17885e-15 0)
(3 2.56787e-15 0)
(3 3.30211e-15 0)
(3 3.44683e-15 0)
(3 2.39614e-15 0)
(3 -3.65903e-18 0)
(3 -5.38804e-16 0)
(3 -2.85973e-16 0)
(3 -3.18378e-17 0)
(3 4.50947e-16 0)
(3 1.87505e-15 0)
(3 2.85638e-15 0)
(3 3.03019e-15 0)
(3 2.24366e-15 0)
(3 1.75619e-15 0)
(3 2.07886e-15 0)
(3 1.83103e-15 0)
(3 1.65754e-15 0)
(3 1.13545e-15 0)
(3 4.15712e-16 0)
(3 1.93464e-16 0)
(3 -2.93387e-16 0)
(3 -9.39213e-17 0)
(3 1.31691e-15 0)
(3 1.23781e-15 0)
(3 7.74891e-16 0)
(3 2.21321e-16 0)
(3 -1.27011e-17 0)
(3 -2.35643e-16 0)
(3 -4.63101e-16 0)
(3 -1.09356e-16 0)
(3 -8.18588e-16 0)
(3 -8.91214e-16 0)
(3 -7.93852e-16 0)
(3 -7.40654e-16 0)
(3 -4.0386e-16 0)
(3 2.70216e-16 0)
(3 3.38565e-16 0)
(3 1.12392e-16 0)
(3 -2.95033e-16 0)
(3 -8.83698e-16 0)
(3 -7.5362e-16 0)
(3 -8.17263e-16 0)
(3 -1.21421e-15 0)
(3 -2.02074e-15 0)
(3 -2.12783e-15 0)
(3 -1.69571e-15 0)
(3 -2.22463e-16 0)
(3 7.51651e-16 0)
(3 5.59956e-17 0)
(3 -1.73287e-16 0)
(3 2.02392e-16 0)
(3 8.3219e-16 0)
(3 1.2118e-15 0)
(3 1.26223e-15 0)
(3 9.72623e-16 0)
(3 7.23553e-16 0)
(3 -3.30768e-16 0)
(3 -6.85953e-16 0)
(3 -1.03393e-15 0)
(3 -6.52214e-16 0)
(3 -4.92351e-16 0)
(3 1.28267e-16 0)
(3 9.28043e-16 0)
(3 3.70661e-16 0)
(3 -8.50011e-16 0)
(3 -1.20726e-15 0)
(3 -1.54175e-15 0)
(3 -1.92684e-15 0)
(3 -2.48646e-15 0)
(3 -2.20073e-15 0)
(3 -1.77378e-15 0)
(3 -1.89445e-15 0)
(3 -1.94998e-15 0)
(3 -1.118e-15 0)
(3 3.91709e-16 0)
(3 9.42518e-16 0)
(3 1.27735e-15 0)
(3 1.55879e-15 0)
(3 1.74607e-15 0)
(3 1.88491e-15 0)
(3 2.21748e-15 0)
(3 2.34992e-15 0)
(3 1.57247e-15 0)
(3 7.81666e-16 0)
(3 6.85175e-16 0)
(3 5.10208e-16 0)
(3 4.27193e-16 0)
(3 5.31869e-16 0)
(3 -9.79209e-17 0)
(3 -4.95762e-16 0)
(3 -3.42988e-17 0)
(3 7.66282e-17 0)
(3 -2.66474e-16 0)
(3 -2.19377e-16 0)
(3 4.84739e-16 0)
(3 9.67706e-16 0)
(3 1.30529e-15 0)
(3 1.93145e-15 0)
(3 2.44028e-15 0)
(3 2.77115e-15 0)
(3 2.65376e-15 0)
(3 2.0665e-15 0)
(3 1.83619e-15 0)
(3 2.12866e-15 0)
(3 2.49009e-15 0)
(3 1.95048e-15 0)
(3 1.69261e-15 0)
(3 1.11602e-15 0)
(3 2.65223e-16 0)
(3 -4.17412e-16 0)
(3 -3.28358e-16 0)
(3 5.38221e-16 0)
(3 6.98892e-16 0)
(3 5.54575e-16 0)
(3 6.89868e-16 0)
(3 4.97122e-16 0)
(3 4.63944e-16 0)
(3 2.20642e-16 0)
(3 8.568e-17 0)
(3 5.34981e-16 0)
(3 5.72052e-16 0)
(3 7.65473e-16 0)
(3 2.00014e-16 0)
(3 1.19466e-16 0)
(3 1.50944e-16 0)
(3 -1.55174e-16 0)
(3 -3.64248e-16 0)
(3 -8.7769e-16 0)
(3 -1.0819e-15 0)
(3 -4.98993e-16 0)
(3 1.08864e-16 0)
(3 6.23555e-16 0)
(3 1.14757e-15 0)
(3 9.37812e-16 0)
(3 4.51811e-16 0)
(3 7.22175e-16 0)
(3 9.54116e-16 0)
(3 2.90982e-17 0)
(3 -8.1826e-16 0)
(3 -1.01845e-15 0)
(3 -1.6505e-15 0)
(3 -1.61641e-15 0)
(3 -1.11809e-15 0)
(3 -1.24926e-15 0)
(3 -4.50564e-16 0)
(3 1.19543e-15 0)
(3 7.95392e-16 0)
(3 9.61149e-16 0)
(3 1.09759e-15 0)
(3 4.81729e-16 0)
(3 5.67834e-16 0)
(3 1.30187e-16 0)
(3 1.88005e-16 0)
(3 -5.80548e-16 0)
(3 -2.00655e-15 0)
(3 -2.39599e-15 0)
(3 -1.6489e-15 0)
(3 -5.65483e-16 0)
(3 -8.6684e-17 0)
(3 -1.32762e-16 0)
(3 -4.08718e-16 0)
(3 -1.60915e-15 0)
(3 -2.01612e-15 0)
(3 -2.73667e-15 0)
(3 -2.71486e-15 0)
(3 -2.62311e-15 0)
(3 -1.88349e-15 0)
(3 -1.85792e-15 0)
(3 -1.8216e-15 0)
(3 -1.53863e-15 0)
(3 2.58438e-16 0)
(3 6.36635e-16 0)
(3 7.50442e-16 0)
(3 1.16623e-15 0)
(3 9.67135e-16 0)
(3 9.08495e-16 0)
(3 7.47522e-16 0)
(3 9.1651e-16 0)