/*--------------------------------*- C++ -*----------------------------------*\
  =========                 |
  \\      /  F ield         | OpenFOAM: The Open Source CFD Toolbox
   \\    /   O peration     | Website:  https://openfoam.org
    \\  /    A nd           | Version:  7
     \\/     M anipulation  |
\*---------------------------------------------------------------------------*/
FoamFile
{
    version     2.0;
    format      ascii;
    class       volVectorField;
    location    "0.2";
    object      U;
}
// * * * * * * * * * * * * * * * * * * * * * * * * * * * * * * * * * * * * * //

dimensions      [0 1 -1 0 0 0 0];

internalField   nonuniform List<vector> 
73728
(
(3 -7.8325e-18 0)
(3 6.13329e-18 0)
(3 -2.6966e-17 0)
(3 -9.97505e-17 0)
(3 -5.49451e-16 0)
(3 -9.02269e-16 0)
(3 -9.08648e-16 0)
(3 -7.24413e-16 0)
(3 -7.69108e-16 0)
(3 -4.50562e-16 0)
(3 -6.6222e-16 0)
(3 -1.32136e-15 0)
(3 -2.12245e-15 0)
(3 -1.24996e-15 0)
(3 2.158e-16 0)
(3 4.68048e-16 0)
(3 9.07527e-16 0)
(3 1.67634e-15 0)
(3 1.93237e-15 0)
(3 8.691e-16 0)
(3 -6.15781e-16 0)
(3 -6.14507e-16 0)
(3 -1.39065e-16 0)
(3 5.10527e-17 0)
(3 3.30835e-17 0)
(3 -1.71864e-15 0)
(3 -1.82277e-15 0)
(3 -8.95453e-16 0)
(3 -6.47313e-16 0)
(3 2.60691e-16 0)
(3 4.95953e-16 0)
(3 -9.84008e-17 0)
(3 -3.05485e-16 0)
(3 -3.96382e-16 0)
(3 -8.1111e-16 0)
(3 -1.19824e-15 0)
(3 -1.92943e-15 0)
(3 -1.67701e-15 0)
(3 -6.30142e-16 0)
(3 -3.5512e-16 0)
(3 -7.47465e-16 0)
(3 -1.26577e-15 0)
(3 -1.30702e-15 0)
(3 -1.01176e-15 0)
(3 -1.07465e-15 0)
(3 -1.00883e-15 0)
(3 -1.01174e-15 0)
(3 -9.4573e-16 0)
(3 -7.98505e-16 0)
(3 7.36094e-16 0)
(3 1.03859e-15 0)
(3 7.53296e-16 0)
(3 6.81261e-16 0)
(3 7.96249e-16 0)
(3 8.45974e-16 0)
(3 2.88639e-16 0)
(3 1.88691e-16 0)
(3 -1.44009e-16 0)
(3 -8.02811e-16 0)
(3 -1.06285e-15 0)
(3 -1.0338e-15 0)
(3 -1.73005e-16 0)
(3 -5.59351e-17 0)
(3 -6.86836e-16 0)
(3 -1.04425e-15 0)
(3 -4.63089e-16 0)
(3 -7.27183e-16 0)
(3 -1.19492e-15 0)
(3 -1.94024e-15 0)
(3 -1.20091e-15 0)
(3 -9.68302e-16 0)
(3 -1.05121e-15 0)
(3 -8.49518e-16 0)
(3 1.00627e-16 0)
(3 7.36501e-16 0)
(3 2.76432e-16 0)
(3 5.22925e-16 0)
(3 6.60956e-16 0)
(3 4.2576e-16 0)
(3 -4.74147e-16 0)
(3 -2.4106e-16 0)
(3 -3.39527e-16 0)
(3 -3.7322e-16 0)
(3 3.83948e-16 0)
(3 6.34194e-16 0)
(3 5.29479e-16 0)
(3 4.36872e-16 0)
(3 6.79857e-16 0)
(3 -2.51405e-16 0)
(3 -9.28749e-16 0)
(3 -9.51155e-16 0)
(3 -4.98211e-16 0)
(3 -4.87218e-16 0)
(3 -4.95554e-16 0)
(3 -3.29277e-16 0)
(3 2.33398e-16 0)
(3 -1.12836e-16 0)
(3 -1.26429e-16 0)
(3 -5.86198e-17 0)
(3 1.12292e-16 0)
(3 -3.94224e-16 0)
(3 -6.62382e-16 0)
(3 -5.63686e-16 0)
(3 -1.18698e-16 0)
(3 -1.45092e-16 0)
(3 -7.0793e-17 0)
(3 -6.8921e-16 0)
(3 -1.32088e-15 0)
(3 -1.36541e-15 0)
(3 -5.4863e-16 0)
(3 -2.6528e-16 0)
(3 1.43471e-15 0)
(3 2.5469e-15 0)
(3 2.99601e-15 0)
(3 2.34124e-15 0)
(3 4.17428e-16 0)
(3 -3.52142e-16 0)
(3 -1.89473e-16 0)
(3 -4.10956e-16 0)
(3 -5.67615e-16 0)
(3 -6.73969e-16 0)
(3 -1.02434e-15 0)
(3 -1.16759e-15 0)
(3 -4.03469e-16 0)
(3 1.15675e-15 0)
(3 1.50881e-15 0)
(3 1.75511e-15 0)
(3 3.55459e-16 0)
(3 8.63485e-17 0)
(3 5.03869e-16 0)
(3 2.41398e-16 0)
(3 -7.01357e-16 0)
(3 -8.25027e-16 0)
(3 -2.85039e-17 0)
(3 1.64223e-16 0)
(3 -1.4561e-15 0)
(3 -1.80809e-15 0)
(3 -1.75718e-15 0)
(3 -1.95207e-15 0)
(3 -1.60572e-15 0)
(3 -1.08371e-15 0)
(3 -5.23036e-16 0)
(3 2.71996e-16 0)
(3 4.94275e-16 0)
(3 -3.61659e-16 0)
(3 1.0535e-15 0)
(3 1.18301e-15 0)
(3 5.52558e-16 0)
(3 -2.79548e-16 0)
(3 -2.38668e-16 0)
(3 -3.64373e-16 0)
(3 -8.35601e-16 0)
(3 -8.59393e-16 0)
(3 -1.01993e-15 0)
(3 -1.35301e-15 0)
(3 -1.37731e-15 0)
(3 -9.83212e-16 0)
(3 -5.68285e-16 0)
(3 -6.69862e-16 0)
(3 -1.2031e-15 0)
(3 -2.20255e-15 0)
(3 -1.00861e-15 0)
(3 -1.00742e-15 0)
(3 -2.43133e-15 0)
(3 -2.77374e-15 0)
(3 -1.46698e-15 0)
(3 -1.16232e-15 0)
(3 -1.37079e-15 0)
(3 -1.36783e-15 0)
(3 -9.79597e-17 0)
(3 1.20685e-15 0)
(3 -2.65152e-16 0)
(3 -8.83303e-16 0)
(3 -5.90033e-16 0)
(3 -4.1122e-18 0)
(3 -3.70572e-16 0)
(3 -5.40952e-16 0)
(3 -8.16111e-16 0)
(3 -7.58767e-16 0)
(3 -5.95567e-16 0)
(3 1.82535e-16 0)
(3 1.45302e-16 0)
(3 -2.75022e-17 0)
(3 -9.22589e-17 0)
(3 -1.43309e-15 0)
(3 -3.43244e-15 0)
(3 -3.01312e-15 0)
(3 -1.05127e-15 0)
(3 -4.75899e-17 0)
(3 3.58972e-17 0)
(3 2.68584e-16 0)
(3 1.20392e-15 0)
(3 -1.70289e-17 0)
(3 -1.6685e-16 0)
(3 1.14809e-16 0)
(3 3.72128e-16 0)
(3 4.64364e-16 0)
(3 5.94801e-16 0)
(3 6.07405e-16 0)
(3 5.6716e-16 0)
(3 4.99035e-16 0)
(3 1.87523e-16 0)
(3 3.72036e-16 0)
(3 7.14026e-16 0)
(3 9.86355e-16 0)
(3 1.09084e-15 0)
(3 4.30489e-16 0)
(3 1.17381e-15 0)
(3 1.77956e-15 0)
(3 1.90966e-15 0)
(3 3.48655e-16 0)
(3 1.61003e-17 0)
(3 1.41978e-15 0)
(3 1.83064e-15 0)
(3 1.10365e-15 0)
(3 7.24838e-16 0)
(3 5.72615e-16 0)
(3 -1.10216e-16 0)
(3 3.94544e-16 0)
(3 1.15192e-15 0)
(3 2.15075e-15 0)
(3 2.01535e-15 0)
(3 2.30776e-15 0)
(3 1.50998e-15 0)
(3 5.62192e-16 0)
(3 7.94042e-17 0)
(3 -6.04254e-16 0)
(3 -1.61089e-15 0)
(3 -2.20611e-15 0)
(3 -2.46594e-15 0)
(3 -1.82022e-15 0)
(3 -1.26649e-15 0)
(3 -1.7022e-15 0)
(3 -2.45303e-15 0)
(3 -2.82973e-15 0)
(3 -2.74994e-15 0)
(3 -2.6528e-15 0)
(3 -1.43677e-15 0)
(3 -9.13033e-16 0)
(3 -3.89851e-16 0)
(3 -1.41731e-16 0)
(3 1.31012e-16 0)
(3 7.50607e-17 0)
(3 3.6996e-16 0)
(3 1.17718e-15 0)
(3 1.33705e-15 0)
(3 1.32104e-16 0)
(3 1.94165e-16 0)
(3 -1.66954e-16 0)
(3 -1.07568e-15 0)
(3 -1.20773e-15 0)
(3 -6.76297e-16 0)
(3 -2.42646e-16 0)
(3 -6.0609e-16 0)
(3 -1.95813e-16 0)
(3 -4.58095e-16 0)
(3 -5.59365e-16 0)
(3 -7.41239e-16 0)
(3 -5.72078e-16 0)
(3 -2.85125e-16 0)
(3 3.99591e-16 0)
(3 1.21477e-15 0)
(3 1.64494e-15 0)
(3 1.27018e-15 0)
(3 3.78773e-16 0)
(3 5.21479e-16 0)
(3 7.9467e-16 0)
(3 8.56692e-16 0)
(3 2.9769e-16 0)
(3 -1.43662e-16 0)
(3 -2.16438e-16 0)
(3 2.47839e-16 0)
(3 -9.93354e-16 0)
(3 -1.03744e-15 0)
(3 -1.06483e-15 0)
(3 -6.10784e-16 0)
(3 -1.87178e-17 0)
(3 3.06828e-16 0)
(3 -5.82574e-17 0)
(3 -1.3825e-15 0)
(3 -2.80519e-15 0)
(3 -3.19537e-15 0)
(3 -3.33167e-15 0)
(3 -2.43282e-15 0)
(3 -7.47811e-16 0)
(3 -5.02607e-16 0)
(3 3.26043e-16 0)
(3 1.219e-15 0)
(3 -1.777e-17 0)
(3 -3.3334e-17 0)
(3 2.14053e-16 0)
(3 7.10162e-16 0)
(3 1.25506e-15 0)
(3 1.20813e-15 0)
(3 1.2704e-15 0)
(3 8.01495e-16 0)
(3 4.21076e-16 0)
(3 1.60778e-17 0)
(3 5.65811e-16 0)
(3 1.89882e-15 0)
(3 1.96635e-15 0)
(3 1.2379e-15 0)
(3 4.09e-16 0)
(3 1.63805e-16 0)
(3 -2.68404e-16 0)
(3 -1.51455e-16 0)
(3 -6.13052e-16 0)
(3 -1.08772e-16 0)
(3 6.2646e-16 0)
(3 1.09858e-15 0)
(3 1.51494e-15 0)
(3 1.43092e-15 0)
(3 9.82984e-16 0)
(3 1.30901e-15 0)
(3 1.96593e-15 0)
(3 3.32436e-15 0)
(3 4.65095e-15 0)
(3 3.35152e-15 0)
(3 2.16744e-15 0)
(3 9.24449e-16 0)
(3 1.25694e-16 0)
(3 -3.0435e-16 0)
(3 -2.12117e-16 0)
(3 -3.23436e-16 0)
(3 -1.95545e-15 0)
(3 -2.3816e-15 0)
(3 -1.93882e-15 0)
(3 -3.09946e-16 0)
(3 -1.47766e-15 0)
(3 -3.2356e-15 0)
(3 -3.43423e-15 0)
(3 -3.15156e-15 0)
(3 -9.34506e-16 0)
(3 -1.4096e-16 0)
(3 -1.93702e-15 0)
(3 -1.39511e-15 0)
(3 -2.02164e-16 0)
(3 -7.0336e-16 0)
(3 -1.0301e-15 0)
(3 -2.55644e-16 0)
(3 9.09814e-16 0)
(3 1.25916e-15 0)
(3 1.2863e-15 0)
(3 1.13109e-15 0)
(3 5.01611e-16 0)
(3 -3.60483e-16 0)
(3 -1.63472e-15 0)
(3 -1.13529e-15 0)
(3 -2.012e-16 0)
(3 3.35075e-16 0)
(3 7.25278e-16 0)
(3 2.03993e-15 0)
(3 2.31951e-15 0)
(3 8.58727e-16 0)
(3 3.8964e-16 0)
(3 1.66248e-15 0)
(3 2.00621e-15 0)
(3 2.09577e-15 0)
(3 2.7265e-15 0)
(3 2.24874e-15 0)
(3 1.84538e-15 0)
(3 1.54213e-15 0)
(3 1.47107e-15 0)
(3 1.64786e-15 0)
(3 1.77897e-15 0)
(3 1.24495e-15 0)
(3 1.87266e-16 0)
(3 -1.55933e-16 0)
(3 -1.04496e-15 0)
(3 -9.3809e-16 0)
(3 -8.78191e-16 0)
(3 -4.16456e-16 0)
(3 -5.35072e-16 0)
(3 -3.53252e-16 0)
(3 -6.26736e-16 0)
(3 -1.52586e-15 0)
(3 -2.63121e-15 0)
(3 -3.59057e-15 0)
(3 -3.97327e-15 0)
(3 -3.81249e-15 0)
(3 -3.10913e-15 0)
(3 -1.8737e-15 0)
(3 -5.41078e-16 0)
(3 3.2836e-16 0)
(3 1.09343e-16 0)
(3 1.53184e-16 0)
(3 1.95788e-16 0)
(3 2.4322e-16 0)
(3 4.42934e-16 0)
(3 7.41049e-16 0)
(3 6.91743e-16 0)
(3 7.09686e-16 0)
(3 6.18091e-16 0)
(3 6.91708e-16 0)
(3 7.62481e-16 0)
(3 4.20355e-16 0)
(3 6.8405e-16 0)
(3 2.77226e-16 0)
(3 -7.90202e-16 0)
(3 -1.29318e-15 0)
(3 -1.47087e-15 0)
(3 -1.09145e-15 0)
(3 -3.43859e-16 0)
(3 -3.75814e-16 0)
(3 -4.46929e-16 0)
(3 8.55627e-16 0)
(3 1.08327e-15 0)
(3 1.18394e-15 0)
(3 8.22344e-16 0)
(3 9.13531e-16 0)
(3 8.49113e-16 0)
(3 1.2025e-15 0)
(3 3.56563e-15 0)
(3 3.73757e-15 0)
(3 1.76909e-15 0)
(3 1.27959e-15 0)
(3 8.31161e-16 0)
(3 8.16776e-16 0)
(3 5.95272e-16 0)
(3 -2.63657e-16 0)
(3 -7.48893e-16 0)
(3 -2.22419e-15 0)
(3 -2.84553e-15 0)
(3 -2.3541e-15 0)
(3 -3.03252e-15 0)
(3 -3.92049e-15 0)
(3 -4.33633e-15 0)
(3 -1.6254e-15 0)
(3 -5.61921e-17 0)
(3 -9.26226e-16 0)
(3 -1.02292e-15 0)
(3 -1.01567e-15 0)
(3 -5.27567e-16 0)
(3 -6.42888e-16 0)
(3 -1.78295e-15 0)
(3 -1.68971e-15 0)
(3 -9.39677e-16 0)
(3 4.31582e-16 0)
(3 1.71572e-15 0)
(3 1.50214e-15 0)
(3 5.1791e-16 0)
(3 4.11987e-16 0)
(3 -7.23913e-17 0)
(3 -6.80531e-16 0)
(3 -4.89094e-16 0)
(3 2.2081e-15 0)
(3 3.25456e-15 0)
(3 5.46054e-15 0)
(3 5.17085e-15 0)
(3 4.10226e-15 0)
(3 2.51453e-15 0)
(3 1.4395e-15 0)
(3 3.59253e-16 0)
(3 1.05407e-15 0)
(3 9.47652e-16 0)
(3 1.24716e-15 0)
(3 2.02851e-15 0)
(3 1.93118e-15 0)
(3 1.9053e-15 0)
(3 1.4927e-15 0)
(3 9.37968e-16 0)
(3 2.03968e-16 0)
(3 -3.29157e-16 0)
(3 -3.39358e-16 0)
(3 1.8681e-18 0)
(3 9.00795e-16 0)
(3 1.24986e-15 0)
(3 8.63067e-16 0)
(3 1.83828e-16 0)
(3 -2.99773e-16 0)
(3 -9.14904e-16 0)
(3 -1.2756e-15 0)
(3 -1.71485e-15 0)
(3 -1.87842e-15 0)
(3 -1.01833e-15 0)
(3 -9.9871e-16 0)
(3 -5.28203e-16 0)
(3 -4.58956e-16 0)
(3 -3.20875e-16 0)
(3 4.10627e-16 0)
(3 2.09961e-17 0)
(3 -7.48277e-18 0)
(3 1.09675e-17 0)
(3 -3.59244e-16 0)
(3 -1.44774e-16 0)
(3 2.21111e-16 0)
(3 2.75162e-16 0)
(3 5.24461e-16 0)
(3 5.78812e-16 0)
(3 8.885e-16 0)
(3 7.13698e-16 0)
(3 6.16375e-17 0)
(3 -2.37883e-16 0)
(3 -1.82318e-17 0)
(3 2.16743e-16 0)
(3 -3.2695e-16 0)
(3 -6.11498e-16 0)
(3 -1.089e-15 0)
(3 -9.02733e-16 0)
(3 -6.49831e-16 0)
(3 -2.76757e-16 0)
(3 7.08374e-16 0)
(3 9.25901e-16 0)
(3 8.59959e-16 0)
(3 6.70574e-16 0)
(3 1.10196e-15 0)
(3 1.07896e-15 0)
(3 7.44065e-16 0)
(3 1.44172e-15 0)
(3 3.48814e-15 0)
(3 3.5585e-15 0)
(3 3.18881e-15 0)
(3 3.38542e-15 0)
(3 2.08151e-15 0)
(3 -5.48587e-16 0)
(3 -3.07224e-15 0)
(3 -3.62405e-15 0)
(3 -3.73122e-15 0)
(3 -3.24715e-15 0)
(3 -2.77507e-15 0)
(3 -2.75033e-15 0)
(3 -2.67121e-15 0)
(3 -1.10369e-15 0)
(3 3.08703e-17 0)
(3 -6.77277e-16 0)
(3 -9.65909e-16 0)
(3 -6.44219e-16 0)
(3 -5.33215e-16 0)
(3 1.48879e-17 0)
(3 8.10138e-16 0)
(3 1.42084e-16 0)
(3 -1.89133e-15 0)
(3 -1.60007e-15 0)
(3 1.52144e-15 0)
(3 2.12581e-15 0)
(3 2.35115e-15 0)
(3 1.41173e-15 0)
(3 9.99972e-16 0)
(3 1.55813e-15 0)
(3 6.90201e-16 0)
(3 4.15746e-16 0)
(3 2.20373e-15 0)
(3 5.68818e-15 0)
(3 6.43071e-15 0)
(3 5.24701e-15 0)
(3 4.93656e-15 0)
(3 3.18648e-15 0)
(3 5.86382e-16 0)
(3 -6.67417e-16 0)
(3 4.44791e-16 0)
(3 8.42037e-16 0)
(3 1.20357e-15 0)
(3 7.02759e-16 0)
(3 3.56028e-16 0)
(3 3.11514e-16 0)
(3 2.96618e-16 0)
(3 5.05082e-16 0)
(3 3.55173e-16 0)
(3 -4.88282e-16 0)
(3 -8.7302e-16 0)
(3 1.58992e-15 0)
(3 3.06891e-15 0)
(3 3.60703e-15 0)
(3 2.52842e-15 0)
(3 1.6962e-15 0)
(3 1.10477e-15 0)
(3 -2.01589e-16 0)
(3 4.58527e-17 0)
(3 1.67217e-15 0)
(3 1.94407e-15 0)
(3 3.01301e-15 0)
(3 4.02654e-15 0)
(3 2.91864e-15 0)
(3 2.4039e-15 0)
(3 1.26323e-15 0)
(3 8.20436e-16 0)
(3 -4.19439e-16 0)
(3 -3.48561e-16 0)
(3 3.29476e-16 0)
(3 1.99708e-16 0)
(3 -1.00257e-16 0)
(3 -4.03083e-16 0)
(3 -2.77726e-16 0)
(3 -1.87503e-16 0)
(3 -1.2853e-16 0)
(3 3.75794e-17 0)
(3 2.71944e-16 0)
(3 5.57278e-16 0)
(3 1.0541e-15 0)
(3 1.24661e-15 0)
(3 1.21664e-15 0)
(3 2.49772e-16 0)
(3 -1.39927e-16 0)
(3 -2.94607e-16 0)
(3 -1.17804e-15 0)
(3 -1.77026e-15 0)
(3 -1.26838e-15 0)
(3 -5.10849e-16 0)
(3 9.85224e-17 0)
(3 4.56432e-16 0)
(3 7.46553e-16 0)
(3 1.67942e-15 0)
(3 2.12623e-15 0)
(3 2.4871e-15 0)
(3 2.52198e-15 0)
(3 1.73142e-15 0)
(3 2.19389e-15 0)
(3 4.14633e-15 0)
(3 3.75673e-15 0)
(3 2.58271e-15 0)
(3 -8.06263e-16 0)
(3 -1.77827e-15 0)
(3 -1.4431e-15 0)
(3 -1.14873e-15 0)
(3 -1.86242e-15 0)
(3 -1.88084e-15 0)
(3 -1.05154e-15 0)
(3 -1.8813e-16 0)
(3 4.35881e-16 0)
(3 -1.0567e-15 0)
(3 -2.70032e-15 0)
(3 -2.79985e-15 0)
(3 -2.37725e-15 0)
(3 -1.58564e-15 0)
(3 -1.39948e-15 0)
(3 -7.76579e-16 0)
(3 -6.11647e-16 0)
(3 -1.5104e-15 0)
(3 -6.0647e-16 0)
(3 4.83e-16 0)
(3 -5.76771e-16 0)
(3 8.45087e-16 0)
(3 3.8441e-15 0)
(3 4.14464e-15 0)
(3 4.1004e-15 0)
(3 3.22041e-15 0)
(3 -2.1908e-16 0)
(3 -3.97462e-16 0)
(3 2.40518e-15 0)
(3 4.79674e-15 0)
(3 4.79018e-15 0)
(3 4.1436e-15 0)
(3 1.67586e-15 0)
(3 -7.06898e-16 0)
(3 -1.71584e-15 0)
(3 -1.32026e-15 0)
(3 -6.15478e-16 0)
(3 5.45291e-16 0)
(3 1.77914e-15 0)
(3 1.57626e-15 0)
(3 8.74808e-16 0)
(3 1.04841e-15 0)
(3 1.43132e-15 0)
(3 1.81614e-15 0)
(3 2.1959e-15 0)
(3 2.24715e-15 0)
(3 2.42334e-15 0)
(3 2.36643e-15 0)
(3 3.70789e-15 0)
(3 3.33093e-15 0)
(3 -4.62626e-16 0)
(3 -1.20985e-15 0)
(3 -7.70836e-16 0)
(3 1.45572e-15 0)
(3 3.82341e-15 0)
(3 3.99567e-15 0)
(3 3.52492e-15 0)
(3 2.79842e-15 0)
(3 1.93067e-15 0)
(3 1.74872e-15 0)
(3 2.81007e-15 0)
(3 2.8667e-15 0)
(3 5.16949e-17 0)
(3 3.22618e-16 0)
(3 2.6993e-16 0)
(3 7.08275e-17 0)
(3 -3.01637e-16 0)
(3 -6.4983e-16 0)
(3 -1.06606e-15 0)
(3 -1.60977e-15 0)
(3 -1.10597e-15 0)
(3 -9.88144e-16 0)
(3 2.72089e-16 0)
(3 6.41005e-16 0)
(3 6.23556e-16 0)
(3 6.16558e-16 0)
(3 2.23716e-16 0)
(3 1.94942e-16 0)
(3 4.71098e-16 0)
(3 6.8312e-16 0)
(3 -3.57329e-16 0)
(3 -7.61772e-16 0)
(3 -3.65964e-16 0)
(3 7.26818e-17 0)
(3 -2.14754e-16 0)
(3 -1.35381e-16 0)
(3 -2.46952e-16 0)
(3 5.74614e-16 0)
(3 1.57473e-15 0)
(3 2.20592e-15 0)
(3 1.78122e-15 0)
(3 5.36098e-16 0)
(3 6.9172e-16 0)
(3 3.3116e-15 0)
(3 3.64388e-15 0)
(3 3.40719e-15 0)
(3 3.74368e-16 0)
(3 -1.16015e-15 0)
(3 -2.46592e-15 0)
(3 -2.31114e-15 0)
(3 -2.38726e-15 0)
(3 -1.35226e-15 0)
(3 1.25892e-15 0)
(3 4.924e-16 0)
(3 -8.51799e-16 0)
(3 -6.69975e-16 0)
(3 -1.43734e-15 0)
(3 -2.77088e-15 0)
(3 -3.00786e-15 0)
(3 -3.43384e-15 0)
(3 -3.62131e-15 0)
(3 -3.60392e-15 0)
(3 -1.63325e-15 0)
(3 2.73913e-16 0)
(3 -6.44604e-16 0)
(3 -2.48097e-15 0)
(3 -9.31952e-16 0)
(3 2.25261e-16 0)
(3 1.63839e-15 0)
(3 2.93763e-15 0)
(3 3.81777e-15 0)
(3 2.53268e-15 0)
(3 1.55017e-15 0)
(3 1.48419e-15 0)
(3 3.09909e-15 0)
(3 3.30033e-15 0)
(3 4.00429e-15 0)
(3 2.24259e-15 0)
(3 8.73508e-16 0)
(3 -8.05576e-16 0)
(3 -2.13261e-15 0)
(3 -1.35377e-15 0)
(3 -1.86787e-16 0)
(3 9.4759e-16 0)
(3 1.00041e-15 0)
(3 7.19531e-16 0)
(3 -3.67232e-16 0)
(3 -4.72507e-16 0)
(3 1.43378e-15 0)
(3 3.23315e-15 0)
(3 5.16114e-15 0)
(3 5.63411e-15 0)
(3 3.02409e-15 0)
(3 2.0758e-15 0)
(3 2.42593e-15 0)
(3 5.06437e-16 0)
(3 -2.59826e-15 0)
(3 -2.46282e-15 0)
(3 -1.52927e-15 0)
(3 4.80409e-16 0)
(3 2.05331e-15 0)
(3 2.13266e-15 0)
(3 1.46835e-15 0)
(3 1.18375e-15 0)
(3 1.87782e-15 0)
(3 3.14581e-15 0)
(3 3.73354e-15 0)
(3 3.66276e-15 0)
(3 3.87765e-17 0)
(3 -4.03487e-17 0)
(3 -5.65792e-16 0)
(3 -5.06707e-16 0)
(3 -2.55951e-16 0)
(3 -4.66403e-17 0)
(3 -7.77251e-17 0)
(3 -1.63467e-16 0)
(3 -6.32028e-16 0)
(3 -9.31032e-16 0)
(3 -1.18236e-16 0)
(3 5.2436e-16 0)
(3 6.53836e-17 0)
(3 -1.24578e-15 0)
(3 -8.79513e-16 0)
(3 -6.09023e-16 0)
(3 4.14443e-17 0)
(3 3.98773e-16 0)
(3 1.47513e-16 0)
(3 3.32355e-16 0)
(3 -3.06781e-16 0)
(3 -1.25718e-15 0)
(3 -1.41661e-15 0)
(3 -1.32511e-15 0)
(3 -1.11615e-15 0)
(3 -7.47957e-16 0)
(3 -2.09688e-16 0)
(3 1.84732e-16 0)
(3 4.46165e-16 0)
(3 3.87357e-16 0)
(3 9.77244e-16 0)
(3 1.83535e-15 0)
(3 2.10627e-15 0)
(3 2.18837e-15 0)
(3 9.36895e-17 0)
(3 -1.6817e-15 0)
(3 -2.41352e-15 0)
(3 -2.60646e-15 0)
(3 -1.83925e-15 0)
(3 -9.45102e-16 0)
(3 -5.79857e-16 0)
(3 -1.73724e-17 0)
(3 -4.90378e-16 0)
(3 -1.24342e-16 0)
(3 6.22457e-18 0)
(3 -1.09355e-15 0)
(3 -2.23944e-15 0)
(3 -3.34816e-15 0)
(3 -3.25779e-15 0)
(3 -2.8408e-15 0)
(3 -1.41819e-15 0)
(3 -7.74594e-17 0)
(3 -8.84418e-16 0)
(3 -2.57565e-15 0)
(3 -2.35113e-15 0)
(3 -7.21845e-16 0)
(3 4.81516e-16 0)
(3 1.35036e-15 0)
(3 1.57154e-15 0)
(3 1.03387e-15 0)
(3 1.70519e-15 0)
(3 2.80239e-15 0)
(3 2.96116e-15 0)
(3 2.69938e-15 0)
(3 2.14516e-15 0)
(3 2.19567e-15 0)
(3 1.40411e-15 0)
(3 -7.89081e-16 0)
(3 -1.90407e-15 0)
(3 -3.41501e-16 0)
(3 1.86094e-15 0)
(3 3.06659e-15 0)
(3 1.27788e-15 0)
(3 7.30386e-16 0)
(3 -2.67807e-16 0)
(3 -5.661e-16 0)
(3 -2.10634e-16 0)
(3 2.5125e-15 0)
(3 4.11606e-15 0)
(3 4.84514e-15 0)
(3 3.4296e-15 0)
(3 1.30783e-15 0)
(3 -5.25148e-16 0)
(3 -3.87227e-15 0)
(3 -4.87711e-15 0)
(3 -4.11748e-15 0)
(3 -1.24102e-15 0)
(3 4.90645e-17 0)
(3 -5.63137e-17 0)
(3 -1.71456e-16 0)
(3 2.55971e-16 0)
(3 2.01024e-15 0)
(3 3.56335e-15 0)
(3 4.51534e-15 0)
(3 5.05443e-15 0)
(3 3.7565e-15 0)
(3 1.33659e-17 0)
(3 -5.30472e-17 0)
(3 -1.67324e-16 0)
(3 -4.61188e-16 0)
(3 -3.15154e-16 0)
(3 2.16631e-16 0)
(3 4.09782e-16 0)
(3 4.98526e-16 0)
(3 -3.8941e-17 0)
(3 -6.4398e-16 0)
(3 -7.71268e-16 0)
(3 -5.15672e-16 0)
(3 -6.24996e-16 0)
(3 -1.25651e-15 0)
(3 -8.32252e-16 0)
(3 -5.17641e-16 0)
(3 7.79967e-17 0)
(3 -2.22071e-16 0)
(3 5.29354e-16 0)
(3 8.22283e-16 0)
(3 -1.3298e-15 0)
(3 -2.85878e-15 0)
(3 -2.77441e-15 0)
(3 -2.60495e-15 0)
(3 -1.78173e-15 0)
(3 -1.5939e-15 0)
(3 -1.53774e-15 0)
(3 -1.03077e-15 0)
(3 -5.11679e-17 0)
(3 1.15877e-15 0)
(3 1.45827e-15 0)
(3 9.86525e-16 0)
(3 1.00322e-15 0)
(3 7.01944e-16 0)
(3 1.21502e-16 0)
(3 -7.61817e-16 0)
(3 -7.74542e-16 0)
(3 -4.94859e-16 0)
(3 4.37741e-16 0)
(3 1.10368e-16 0)
(3 -5.12747e-16 0)
(3 -6.33944e-16 0)
(3 3.79625e-17 0)
(3 4.33998e-16 0)
(3 -7.66749e-16 0)
(3 -1.70403e-15 0)
(3 -2.85109e-15 0)
(3 -3.13154e-15 0)
(3 -2.83216e-15 0)
(3 -2.70514e-15 0)
(3 -2.43658e-15 0)
(3 -2.16178e-15 0)
(3 -9.74741e-16 0)
(3 -3.19905e-16 0)
(3 -4.06764e-16 0)
(3 -1.25435e-16 0)
(3 2.56019e-16 0)
(3 7.61209e-16 0)
(3 1.03551e-15 0)
(3 9.57211e-19 0)
(3 -2.43443e-16 0)
(3 1.10738e-15 0)
(3 1.00041e-15 0)
(3 1.23986e-15 0)
(3 1.00684e-15 0)
(3 7.09488e-16 0)
(3 6.81878e-16 0)
(3 5.06195e-16 0)
(3 3.9256e-16 0)
(3 1.37858e-15 0)
(3 2.56892e-15 0)
(3 2.26311e-15 0)
(3 1.57248e-15 0)
(3 7.67554e-16 0)
(3 -4.47499e-16 0)
(3 -8.18439e-16 0)
(3 -1.06381e-15 0)
(3 -2.8415e-16 0)
(3 1.44153e-15 0)
(3 2.02876e-15 0)
(3 1.54789e-15 0)
(3 -2.64633e-15 0)
(3 -4.50217e-15 0)
(3 -5.02318e-15 0)
(3 -5.66747e-15 0)
(3 -3.82781e-15 0)
(3 -1.18743e-15 0)
(3 -7.46089e-16 0)
(3 -1.15966e-15 0)
(3 -2.42693e-16 0)
(3 1.63511e-15 0)
(3 3.67823e-15 0)
(3 4.4313e-15 0)
(3 5.03617e-15 0)
(3 5.38202e-15 0)
(3 4.91827e-15 0)
(3 1.30342e-16 0)
(3 2.65778e-16 0)
(3 2.37129e-16 0)
(3 1.87788e-16 0)
(3 2.28686e-17 0)
(3 -9.3477e-17 0)
(3 1.92488e-16 0)
(3 7.2139e-16 0)
(3 8.68515e-16 0)
(3 3.69294e-16 0)
(3 -6.61014e-16 0)
(3 -1.60404e-15 0)
(3 -1.09871e-15 0)
(3 -7.09327e-16 0)
(3 -2.45863e-16 0)
(3 2.07184e-16 0)
(3 -4.10469e-16 0)
(3 1.47912e-16 0)
(3 1.16047e-15 0)
(3 1.35061e-15 0)
(3 1.38482e-17 0)
(3 -1.97168e-15 0)
(3 -2.79141e-15 0)
(3 -2.71828e-15 0)
(3 -1.80332e-15 0)
(3 -1.52167e-15 0)
(3 -9.16062e-16 0)
(3 -4.3663e-17 0)
(3 -5.38188e-17 0)
(3 6.68383e-16 0)
(3 1.7409e-15 0)
(3 1.7569e-15 0)
(3 1.12609e-15 0)
(3 -1.9684e-16 0)
(3 -1.03681e-15 0)
(3 -1.21991e-15 0)
(3 -1.53115e-15 0)
(3 -1.13672e-15 0)
(3 4.60296e-16 0)
(3 1.12337e-15 0)
(3 5.9201e-16 0)
(3 -1.23857e-16 0)
(3 -4.83718e-16 0)
(3 -6.82045e-16 0)
(3 -1.65996e-15 0)
(3 -1.92079e-15 0)
(3 -1.98948e-15 0)
(3 -9.60803e-16 0)
(3 -1.72246e-15 0)
(3 -2.57028e-15 0)
(3 -2.67521e-15 0)
(3 -2.49084e-15 0)
(3 -3.34153e-15 0)
(3 1.626e-16 0)
(3 8.02944e-16 0)
(3 5.94988e-16 0)
(3 2.75978e-16 0)
(3 1.06563e-15 0)
(3 2.50439e-15 0)
(3 2.96663e-15 0)
(3 2.35909e-15 0)
(3 1.42937e-15 0)
(3 2.21405e-15 0)
(3 1.75297e-15 0)
(3 1.93703e-15 0)
(3 1.03222e-15 0)
(3 1.40844e-15 0)
(3 2.24185e-15 0)
(3 3.06488e-15 0)
(3 2.9115e-15 0)
(3 2.26384e-15 0)
(3 2.23854e-15 0)
(3 2.45801e-15 0)
(3 1.6337e-15 0)
(3 8.61941e-16 0)
(3 3.41677e-16 0)
(3 -5.3227e-17 0)
(3 -9.14463e-16 0)
(3 -1.00827e-15 0)
(3 -9.8564e-16 0)
(3 -2.98704e-15 0)
(3 -3.20593e-15 0)
(3 -3.39499e-15 0)
(3 -3.4658e-15 0)
(3 -2.83401e-15 0)
(3 -8.31328e-16 0)
(3 -7.12779e-16 0)
(3 -6.10195e-16 0)
(3 -1.07168e-15 0)
(3 -1.45793e-15 0)
(3 -3.84574e-16 0)
(3 2.25168e-15 0)
(3 2.918e-15 0)
(3 2.77374e-15 0)
(3 2.83307e-15 0)
(3 2.60653e-15 0)
(3 6.73679e-17 0)
(3 9.03381e-17 0)
(3 3.18005e-17 0)
(3 1.01997e-16 0)
(3 2.62209e-16 0)
(3 2.63754e-17 0)
(3 3.70476e-16 0)
(3 7.86853e-16 0)
(3 1.35484e-15 0)
(3 1.5192e-15 0)
(3 5.8609e-16 0)
(3 -2.49602e-16 0)
(3 7.54859e-17 0)
(3 7.67882e-16 0)
(3 -1.08423e-16 0)
(3 -9.82402e-16 0)
(3 -1.24631e-15 0)
(3 -5.78563e-16 0)
(3 -9.95536e-17 0)
(3 -5.04469e-16 0)
(3 -1.73739e-15 0)
(3 -1.5801e-15 0)
(3 -1.51444e-15 0)
(3 -1.05448e-15 0)
(3 -8.1623e-16 0)
(3 -6.30686e-16 0)
(3 -4.73438e-17 0)
(3 7.01214e-16 0)
(3 9.71716e-16 0)
(3 1.24622e-15 0)
(3 1.74066e-15 0)
(3 5.45147e-16 0)
(3 -9.34558e-17 0)
(3 -5.12266e-16 0)
(3 -4.52993e-16 0)
(3 -3.49113e-16 0)
(3 -1.02525e-15 0)
(3 -1.38339e-15 0)
(3 -7.58727e-16 0)
(3 3.76209e-16 0)
(3 3.61022e-16 0)
(3 5.63531e-16 0)
(3 -6.06317e-16 0)
(3 -2.12177e-15 0)
(3 -2.67168e-15 0)
(3 -2.47987e-15 0)
(3 -8.61254e-16 0)
(3 -5.22642e-16 0)
(3 -2.255e-15 0)
(3 -2.42788e-15 0)
(3 -2.68846e-15 0)
(3 -3.58275e-15 0)
(3 -2.63048e-15 0)
(3 2.57645e-16 0)
(3 3.2111e-16 0)
(3 -1.25154e-16 0)
(3 -1.37822e-15 0)
(3 1.71292e-16 0)
(3 5.72578e-16 0)
(3 1.82756e-15 0)
(3 2.88141e-15 0)
(3 2.65635e-15 0)
(3 6.72959e-16 0)
(3 -1.59185e-16 0)
(3 -6.36707e-16 0)
(3 -1.06639e-16 0)
(3 5.83988e-16 0)
(3 2.24353e-15 0)
(3 2.33908e-15 0)
(3 1.27188e-15 0)
(3 1.39387e-15 0)
(3 1.92135e-15 0)
(3 2.05863e-15 0)
(3 1.79224e-15 0)
(3 1.71788e-15 0)
(3 1.46349e-15 0)
(3 3.60758e-16 0)
(3 -1.4301e-15 0)
(3 -2.48316e-15 0)
(3 -3.05364e-15 0)
(3 -2.50628e-15 0)
(3 -2.5181e-15 0)
(3 -2.68887e-15 0)
(3 -1.74274e-15 0)
(3 4.31341e-16 0)
(3 1.75839e-15 0)
(3 3.00914e-16 0)
(3 -5.25344e-17 0)
(3 -6.66699e-17 0)
(3 -9.56235e-16 0)
(3 -6.22599e-16 0)
(3 -5.50099e-16 0)
(3 -8.12267e-16 0)
(3 -1.30248e-15 0)
(3 -1.74218e-15 0)
(3 -1.61087e-15 0)
(3 -1.36037e-17 0)
(3 -1.0965e-17 0)
(3 1.11413e-16 0)
(3 9.01748e-17 0)
(3 -1.98545e-16 0)
(3 -4.19492e-16 0)
(3 -3.0093e-16 0)
(3 -4.95535e-16 0)
(3 3.01966e-16 0)
(3 1.09916e-15 0)
(3 1.4343e-15 0)
(3 1.09315e-15 0)
(3 8.95761e-16 0)
(3 -1.79775e-17 0)
(3 -5.28593e-16 0)
(3 -6.2608e-16 0)
(3 -4.60416e-17 0)
(3 4.99272e-16 0)
(3 8.01052e-16 0)
(3 -3.97268e-16 0)
(3 -1.54516e-15 0)
(3 -1.7982e-15 0)
(3 -6.14849e-16 0)
(3 -5.06863e-16 0)
(3 -9.39499e-16 0)
(3 -8.1334e-16 0)
(3 -6.26978e-16 0)
(3 -2.4808e-16 0)
(3 4.86813e-16 0)
(3 1.68083e-15 0)
(3 6.45969e-16 0)
(3 -1.94479e-17 0)
(3 -9.18427e-16 0)
(3 -1.123e-15 0)
(3 3.65583e-16 0)
(3 6.28759e-16 0)
(3 2.56518e-16 0)
(3 -1.30988e-16 0)
(3 2.56851e-16 0)
(3 1.65918e-16 0)
(3 -7.79758e-16 0)
(3 3.91305e-16 0)
(3 6.00306e-16 0)
(3 7.35482e-16 0)
(3 7.64356e-16 0)
(3 1.10056e-15 0)
(3 5.74318e-16 0)
(3 -1.00419e-15 0)
(3 -3.00541e-15 0)
(3 -3.03442e-15 0)
(3 -3.64852e-15 0)
(3 -4.63071e-15 0)
(3 -1.93829e-15 0)
(3 1.64107e-16 0)
(3 -2.47155e-17 0)
(3 -1.18231e-15 0)
(3 -1.82956e-15 0)
(3 -1.10191e-15 0)
(3 3.5345e-16 0)
(3 1.46151e-15 0)
(3 2.87173e-15 0)
(3 1.84267e-15 0)
(3 2.90539e-16 0)
(3 -8.92547e-16 0)
(3 -1.35677e-15 0)
(3 -1.12601e-15 0)
(3 -4.43721e-16 0)
(3 4.37773e-16 0)
(3 2.0778e-16 0)
(3 -1.97762e-16 0)
(3 -3.12869e-16 0)
(3 -2.85697e-16 0)
(3 -8.13791e-17 0)
(3 -1.37643e-16 0)
(3 5.04775e-16 0)
(3 1.10653e-15 0)
(3 3.3684e-16 0)
(3 -1.67526e-15 0)
(3 -3.02951e-15 0)
(3 -3.40155e-15 0)
(3 -2.38133e-15 0)
(3 -1.44439e-15 0)
(3 -1.4707e-15 0)
(3 1.61451e-16 0)
(3 2.19842e-15 0)
(3 2.26142e-15 0)
(3 -7.03932e-16 0)
(3 -3.29015e-15 0)
(3 -2.95558e-15 0)
(3 -2.08316e-15 0)
(3 -2.34316e-15 0)
(3 -2.92842e-15 0)
(3 -3.14669e-15 0)
(3 -3.81838e-15 0)
(3 -3.94549e-15 0)
(3 -3.92736e-15 0)
(3 1.79354e-18 0)
(3 -2.20385e-18 0)
(3 8.67999e-17 0)
(3 1.40881e-16 0)
(3 9.98052e-17 0)
(3 -1.10581e-16 0)
(3 -6.55489e-16 0)
(3 -1.03241e-15 0)
(3 -1.00493e-15 0)
(3 -6.36977e-16 0)
(3 -1.64829e-16 0)
(3 -4.25894e-16 0)
(3 -5.03878e-16 0)
(3 -3.79253e-16 0)
(3 8.23649e-18 0)
(3 7.1896e-16 0)
(3 1.24297e-15 0)
(3 1.5493e-15 0)
(3 2.46593e-15 0)
(3 2.36081e-15 0)
(3 -1.2771e-16 0)
(3 -2.23285e-16 0)
(3 -1.47851e-17 0)
(3 -1.11281e-15 0)
(3 -1.82151e-15 0)
(3 -1.72653e-15 0)
(3 -1.37225e-15 0)
(3 -8.0193e-16 0)
(3 2.80504e-16 0)
(3 6.21578e-16 0)
(3 -1.0974e-15 0)
(3 -6.68119e-16 0)
(3 4.23185e-16 0)
(3 6.14232e-16 0)
(3 1.94105e-16 0)
(3 -2.30693e-16 0)
(3 -5.40998e-16 0)
(3 -6.20561e-16 0)
(3 3.89907e-16 0)
(3 -3.91431e-16 0)
(3 -1.33246e-15 0)
(3 -1.16292e-15 0)
(3 -1.65383e-16 0)
(3 7.45539e-16 0)
(3 1.15522e-15 0)
(3 1.49734e-15 0)
(3 7.49428e-16 0)
(3 -3.07347e-16 0)
(3 -2.45837e-15 0)
(3 -3.02968e-15 0)
(3 -3.35141e-15 0)
(3 -3.01184e-15 0)
(3 -1.37483e-15 0)
(3 1.52706e-15 0)
(3 1.32518e-15 0)
(3 -1.26131e-15 0)
(3 -2.56169e-15 0)
(3 -2.10816e-15 0)
(3 -1.27701e-16 0)
(3 1.74278e-15 0)
(3 3.09028e-15 0)
(3 3.24025e-15 0)
(3 2.41376e-15 0)
(3 1.46049e-15 0)
(3 1.3152e-15 0)
(3 8.83252e-16 0)
(3 9.14749e-16 0)
(3 6.62807e-16 0)
(3 5.78915e-16 0)
(3 5.13623e-16 0)
(3 3.22095e-17 0)
(3 -1.05583e-15 0)
(3 -1.1107e-15 0)
(3 -4.98877e-16 0)
(3 8.18691e-16 0)
(3 1.13411e-15 0)
(3 7.59779e-17 0)
(3 -1.56072e-15 0)
(3 -3.06172e-15 0)
(3 -1.58277e-15 0)
(3 -1.41252e-15 0)
(3 -9.84789e-17 0)
(3 2.24538e-15 0)
(3 2.85966e-15 0)
(3 2.32438e-15 0)
(3 2.38317e-15 0)
(3 -2.46672e-16 0)
(3 -3.09481e-15 0)
(3 -3.93534e-15 0)
(3 -3.3674e-15 0)
(3 -3.33165e-15 0)
(3 -3.20395e-15 0)
(3 -2.89805e-15 0)
(3 -2.64538e-15 0)
(3 -2.77209e-15 0)
(3 -3.39403e-15 0)
(3 -1.33999e-17 0)
(3 1.49831e-16 0)
(3 -8.48749e-17 0)
(3 1.63259e-16 0)
(3 4.53731e-16 0)
(3 4.93738e-16 0)
(3 6.78872e-17 0)
(3 -1.35376e-16 0)
(3 -3.69492e-16 0)
(3 -6.13703e-16 0)
(3 -1.29051e-15 0)
(3 -1.22964e-15 0)
(3 -8.22445e-16 0)
(3 1.0276e-16 0)
(3 3.4986e-16 0)
(3 6.18377e-16 0)
(3 6.73339e-16 0)
(3 1.50014e-15 0)
(3 1.93761e-15 0)
(3 1.43659e-15 0)
(3 4.93601e-16 0)
(3 8.79626e-16 0)
(3 7.56532e-16 0)
(3 6.93068e-16 0)
(3 1.10251e-16 0)
(3 3.14184e-16 0)
(3 4.74717e-16 0)
(3 5.8133e-16 0)
(3 2.16159e-15 0)
(3 1.57782e-15 0)
(3 -6.79037e-16 0)
(3 -1.49034e-15 0)
(3 -1.37184e-15 0)
(3 -1.10804e-15 0)
(3 -1.08464e-15 0)
(3 -1.2595e-15 0)
(3 -1.30009e-15 0)
(3 -2.81824e-16 0)
(3 -1.15565e-16 0)
(3 4.19134e-16 0)
(3 6.32456e-16 0)
(3 1.61729e-15 0)
(3 1.65448e-15 0)
(3 8.31822e-16 0)
(3 -1.01664e-16 0)
(3 -5.25507e-18 0)
(3 -4.56751e-17 0)
(3 -1.46435e-15 0)
(3 -2.75639e-15 0)
(3 -3.78172e-15 0)
(3 -2.51326e-15 0)
(3 -1.93692e-15 0)
(3 -1.22983e-15 0)
(3 -2.8997e-16 0)
(3 -8.64381e-16 0)
(3 -2.10069e-15 0)
(3 -1.72296e-15 0)
(3 -9.5017e-16 0)
(3 -9.20243e-16 0)
(3 -2.26039e-16 0)
(3 6.3244e-16 0)
(3 1.60044e-15 0)
(3 1.99305e-15 0)
(3 1.90015e-15 0)
(3 2.3268e-15 0)
(3 1.71383e-15 0)
(3 1.61564e-15 0)
(3 1.21271e-15 0)
(3 1.19127e-15 0)
(3 1.31119e-15 0)
(3 7.38357e-16 0)
(3 -1.22973e-16 0)
(3 -5.98105e-16 0)
(3 1.54737e-15 0)
(3 2.74704e-15 0)
(3 1.98558e-15 0)
(3 3.05905e-16 0)
(3 -8.59079e-16 0)
(3 -1.22852e-15 0)
(3 -8.93713e-16 0)
(3 5.40893e-16 0)
(3 1.37652e-15 0)
(3 1.38765e-15 0)
(3 1.44709e-15 0)
(3 1.04506e-15 0)
(3 1.42737e-15 0)
(3 1.6818e-15 0)
(3 9.66576e-17 0)
(3 -2.47266e-15 0)
(3 -3.266e-15 0)
(3 -3.4932e-15 0)
(3 -3.46104e-15 0)
(3 -3.39079e-15 0)
(3 -2.33005e-15 0)
(3 -2.40456e-15 0)
(3 -2.82058e-15 0)
(3 -4.01696e-17 0)
(3 -9.61116e-17 0)
(3 -1.26177e-16 0)
(3 4.81076e-17 0)
(3 6.16823e-18 0)
(3 -2.68047e-16 0)
(3 -3.93909e-16 0)
(3 -6.01477e-16 0)
(3 -6.64018e-16 0)
(3 -5.08448e-16 0)
(3 -9.90078e-16 0)
(3 -2.61387e-16 0)
(3 -5.22462e-17 0)
(3 1.24256e-16 0)
(3 -4.71129e-16 0)
(3 -5.68262e-16 0)
(3 -5.39204e-16 0)
(3 -3.13896e-17 0)
(3 4.60307e-17 0)
(3 -1.59932e-15 0)
(3 -1.73334e-15 0)
(3 1.50158e-16 0)
(3 4.78132e-16 0)
(3 1.20171e-15 0)
(3 1.59346e-15 0)
(3 1.44868e-15 0)
(3 9.68485e-16 0)
(3 9.89478e-16 0)
(3 4.87168e-16 0)
(3 2.43896e-15 0)
(3 1.19921e-15 0)
(3 -8.69981e-16 0)
(3 -3.12544e-15 0)
(3 -3.66097e-15 0)
(3 -3.43389e-15 0)
(3 -3.01912e-15 0)
(3 -2.40511e-15 0)
(3 -6.58984e-16 0)
(3 1.40795e-15 0)
(3 3.84762e-15 0)
(3 2.10467e-15 0)
(3 1.45844e-15 0)
(3 1.23366e-15 0)
(3 4.89272e-16 0)
(3 -1.77003e-15 0)
(3 -3.83042e-15 0)
(3 -3.77738e-15 0)
(3 -4.53956e-15 0)
(3 -4.69455e-15 0)
(3 -5.17476e-15 0)
(3 -4.58459e-15 0)
(3 -1.94303e-15 0)
(3 -1.17679e-15 0)
(3 -1.45282e-15 0)
(3 -2.95854e-15 0)
(3 -2.91541e-15 0)
(3 -2.1514e-15 0)
(3 -1.07285e-15 0)
(3 -9.35547e-16 0)
(3 -7.39823e-16 0)
(3 -1.35467e-15 0)
(3 -6.79442e-16 0)
(3 -1.3254e-16 0)
(3 5.89158e-17 0)
(3 -2.63717e-16 0)
(3 -2.36363e-16 0)
(3 -6.05166e-16 0)
(3 -5.08949e-16 0)
(3 -3.11312e-17 0)
(3 2.52614e-16 0)
(3 4.58422e-16 0)
(3 2.38045e-15 0)
(3 3.08657e-15 0)
(3 1.70094e-15 0)
(3 6.61677e-16 0)
(3 8.82545e-16 0)
(3 -1.39441e-16 0)
(3 -1.41646e-15 0)
(3 -2.75317e-15 0)
(3 -3.305e-15 0)
(3 -4.8557e-16 0)
(3 3.60124e-16 0)
(3 -2.6088e-16 0)
(3 -1.3363e-15 0)
(3 -4.03782e-16 0)
(3 -3.88695e-16 0)
(3 -5.33098e-16 0)
(3 -1.22925e-15 0)
(3 -1.83275e-15 0)
(3 -2.6113e-15 0)
(3 -3.87994e-15 0)
(3 -4.52446e-15 0)
(3 -4.49094e-15 0)
(3 -4.1986e-15 0)
(3 -2.89963e-15 0)
(3 -3.12434e-15 0)
(3 1.93206e-16 0)
(3 8.32379e-17 0)
(3 1.86123e-16 0)
(3 -7.34485e-17 0)
(3 8.81862e-17 0)
(3 2.56092e-16 0)
(3 2.68587e-16 0)
(3 -1.43824e-16 0)
(3 -4.87578e-16 0)
(3 -2.85243e-16 0)
(3 1.29548e-16 0)
(3 4.60785e-16 0)
(3 4.02334e-16 0)
(3 5.69316e-16 0)
(3 -6.19427e-17 0)
(3 -6.46924e-16 0)
(3 -6.6431e-16 0)
(3 -6.72118e-16 0)
(3 -1.51279e-16 0)
(3 -8.01318e-16 0)
(3 -2.45301e-15 0)
(3 -2.00271e-15 0)
(3 -4.40717e-16 0)
(3 1.34676e-16 0)
(3 1.94264e-17 0)
(3 -6.25973e-16 0)
(3 -5.20726e-16 0)
(3 -4.39941e-16 0)
(3 -4.75871e-16 0)
(3 2.09209e-16 0)
(3 -3.63929e-16 0)
(3 -2.31521e-15 0)
(3 -2.86984e-15 0)
(3 -2.83696e-15 0)
(3 -2.81004e-15 0)
(3 -3.89011e-15 0)
(3 -3.25924e-15 0)
(3 -8.90332e-16 0)
(3 2.14058e-15 0)
(3 2.56186e-15 0)
(3 2.38467e-15 0)
(3 1.89413e-15 0)
(3 2.42355e-15 0)
(3 1.08792e-15 0)
(3 -5.37663e-17 0)
(3 -1.79297e-15 0)
(3 -2.85527e-15 0)
(3 -1.75478e-15 0)
(3 -8.61525e-16 0)
(3 -8.32969e-16 0)
(3 -2.12443e-15 0)
(3 -2.61935e-15 0)
(3 -2.893e-15 0)
(3 -3.07094e-15 0)
(3 -3.06093e-15 0)
(3 -2.82426e-15 0)