/*--------------------------------*- C++ -*----------------------------------*\
  =========                 |
  \\      /  F ield         | OpenFOAM: The Open Source CFD Toolbox
   \\    /   O peration     | Website:  https://openfoam.org
    \\  /    A nd           | Version:  7
     \\/     M anipulation  |
\*---------------------------------------------------------------------------*/
FoamFile
{
    version     2.0;
    format      ascii;
    class       volScalarField;
    location    "2.3";
    object      p;
}
// * * * * * * * * * * * * * * * * * * * * * * * * * * * * * * * * * * * * * //

dimensions      [1 -1 -2 0 0 0 0];

internalField   nonuniform List<scalar> 
18432
(
1
1
1
1
1
1
1
1
1
1
1
1
1
1
1
1
1
1
1
1
1
1
1
1
1
1
1
1
1
1
1
1
1
1
1
1
1
1
1
1
1
1
1
1
1
1
1
1
1
1
1
1
1
1
1
1
1
1
1
1
1
1
1
1
1
1
1
1
1
1
1
1
1
1
1
1
1
1
1
1
1
1
1
1
1
1
1
1
1
1
1
1
1
1
1
1
1
1
1
1
1
1
1
1
1
1
1
1
1
1
1
1
1
1
1
1
1
1
1
1
1
1
1
1
1
1
1
1
1
1
1
1
1
1
1
1
1
1
1
1
1
1
1
1
1
1
1
1
1
1
1
1
1
1
1
1
1
1
1
1
1
1
1
1
1
1
1
1
1
1
1
1
1
1
1
1
1
1
1
1
1
1
1
1
1
1
1
1
1
1
1
1
1
1
1
1
1
1
1
1
1
1
1
1
1
1
1
1
1
1
1
1
1
1
1
1
1
1
1
1
1
1
1
1
1
1
1
1
1
1
1
1
1
1
1
1
1
1
1
1
1
1
1
1
1
1
1
1
1
1
1
1
1
1
1
1
1
1
1
1
1
1
1
1
1
1
1
1
1
1
1
1
1
1
1
1
1
1
1
1
1
1
1
1
1
1
1
1
1
1
1
1
1
1
1
1
1
1
1
1
1
1
1
1
1
1
1
1
1
1
1
1
1
1
1
1
1
1
1
1
1
1
1
1
1
1
1
1
1
1
1
1
1
1
1
1
1
1
1
1
1
1
1
1
1
1
1
1
1
1
1
1
1
1
1
1
1
1
1
1
1
1
1
1
1
1
1
1
1
1
1
1
1
1
1
1
1
1
1
1
1
1
1
1
1
1
1
1
1
1
1
1
1
1
1
1
1
1
1
1
1
1
1
1
1
1
1
1
1
1
1
1
1
1
1
1
1
1
1
1
1
1
1
1
1
1
1
1
1
1
1
1
1
1
1
1
1
1
1
1
1
1
1
1
1
1
1
1
1
1
1
1
1
1
1
1
1
1
1
1
1
1
1
1
1
1
1
1
1
1
1
1
1
1
1
1
1
1
1
1
1
1
1
1
1
1
1
1
1
1
1
1
1
1
1
1
1
1
1
1
1
1
1
1
1
1
1
1
1
1
1
1
1
1
1
1
1
1
1
1
1
1
1
1
1
1
1
1
1
1
1
1
1
1
1
1
1
1
1
1
1
1
1
1
1
1
1
1
1
1
1
1
1
1
1
1
1
1
1
1
1
1
1
1
1
1
1
1
1
1
1
1
1
1
1
1
1
1
1
1
1
1
1
1
1
1
1
1
1
1
1
1
1
1
1
1
1
1
1
1
1
1
1
1
1
1
1
1
1
1
1
1
1
1
1
1
1
1
1
1
1
1
1
1
1
1
1
1
1
1
1
1
1
1
1
1
1
1
1
1
1
1
1
1
1
1
1
1
1
1
1
1
1
1
1
1
1
1
1
1
1
1
1
1
1
1
1
1
1
1
1
1
1
1
1
1
1
1
1
1
1
1
1
1
1
1
1
1
1
1
1
1
1
1
1
1
1
1
1
1
1
1
1
1
1
1
1
1
1
1
1
1
1
1
1
1
1
1
1
1
1
1
1
1
1
1
1
1
1
1
1
1
1
1
1
1
1
1
1
1
1
1
1
1
1
1
1
1
1
1
1
1
1
1
1
1
1
1
1
1
1
1
1
1
1
1
1
1
1
1
1
1
1
1
1
1
1
1
1
1
1
1
1
1
1
1
1
1
1
1
1
1
1
1
1
1
1
1
1
1
1
1
1
1
1
1
1
1
1
1
1
1
1
1
1
1
1
1
1
1
1
1
1
1
1
1
1
1
1
1
1
1
1
1
1
1
1
1
1
1
1
1
1
1
1
1
1
1
1
1
1
1
1
1
1
1
1
1
1
1
1
1
1
1
1
1
1
1
1
1
1
1
1
1
1
1
1
1
1
1
1
1
1
1
1
1
1
1
1
1
1
1
1
1
1
1
1
1
1
1
1
1
1
1
1
1
1
1
1
1
1
1
1
1
1
1
1
1
1
1
1
1
1
1
1
1
1
1
1
1
1
1
1
1
1
1
1
1
1
1
1
1
1
1
1
1
1
1
1
1
1
1
1
1
1
1
1
1
1
1
1
1
1
1
1
1
1
1
1
1
1
1
1
1
1
1
1
1
1
1
1
1
1
1
1
1
1
1
1
1
1
1
1
1
1
1
1
1
1
1
1
1
1
1
1
1
1
1
1
1
1
1
1
1
1
1
1
1
1
1
1
1
1
1
1
1
1
1
1
1
1
1
1
1
1
1
1
1
1
1
1
1
1
1
1
1
1
1
1
1
1
1
1
1
1
1
1
1
1
1
1
1
1
1
1
1
1
1
1
1
1
1
1
1
1
1
1
1
1
1
1
1
1
1
1
1
1
1
1
1
1
1
1
1
1
1
1
1
1
1
1
1
1
1
1
1
1
1
1
1
1
1
1
1
1
1
1
1
1
1
1
1
1
1
1
1
1
1
1
1
1
1
1
1
1
1
1
1
1
1
1
1
1
1
1
1
1
1
1
1
1
1
1
1
1
1
1
1
1
1
1
1
1
1
1
1
1
1
1
1
1
1
1
1
1
1
1
1
1
1
1
1
1
1
1
1
1
1
1
1
1
1
1
1
1
1
1
1
1
1
1
1
1
1
1
1
1
1
1
1
1
1
1
1
1
1
1
1
1
1
1
1
1
1
1
1
1
1
1
1
1
1
1
1
1
1
1
1
1
1
1
1
1
1
1
1
1
1
1
1
1
1
1
1
1
1
1
1
1
1
1
1
1
1
1
1
1
1
1
1
1
1
1
1
1
1
1
1
1
1
1
1
1
1
1
1
1
1
1
1
1
1
1
1
1
1
1
1
1
1
1
1
1
1
1
1
1
1
1
1
1
1
1
1
1
1
1
1
1
1
1
1
1
1
1
1
1
1
1
1
1
1
1
1
1
1
1
1
1
1
1
1
1
1
1
1
1
1
1
1
1
1
1
1
1
1
1
1
1
1
1
1
1
1
1
1
1
1
1
1
1
1
1
1
1
1
1
1
1
1
1
1
1
1
1
1
1
1
1
1
1
1
1
1
1
1
1
1
1
1
1
1
1
1
1
1
1
1
1
1
1
1
1
1
1
1
1
1
1
1
1
1
1
1
1
1
1
1
1
1
1
1
1
1
1
1
1
1
1
1
1
1
1
1
1
1
1
1
1
1
1
1
1
1
1
1
1
1
1
1
1
1
1
1
1
1
1
1
1
1
1
1
1
1
1
1
1
1
1
1
1
1
1
1
1
1
1
1
1
1
1
1
1
1
1
1
1
1
1
1
1
1
1
1
1
1
1
1
1
1
1
1
1
1
1
1
1
1
1
1
1
1
1
1
1
1
1
1
1
1
1
1
1
1
1
1
1
1
1
1
1
1
1
1
1
1
1
1
1
1
1
1
1
1
1
1
1
1
1
1
1
1
1
1
1
1
1
1
1
1
1
1
1
1
1
1
1
1
1
1
1
1
1
1
1
1
1
1
1
1
1
1
1
1
1
1
1
1
1
1
1
1
1
1
1
1
1
1
1
1
1
1
1
1
1
1
1
1
1
1
1
1
1
1
1
1
1
1
1
1
1
1
1
1
1
1
1
1
1
1
1
1
1
1
1
1
1
1
1
1
1
1
1
1
1
1
1
1
1
1
1
1
1
1
1
1
1
1
1
1
1
1
1
1
1
1
1
1
1
1
1
1
1
1
1
1
1
1
1
1
1
1
1
1
1
1
1
1
1
1
1
1
1
1
1
1
1
1
1
1
1
1
1
1
1
1
1
1
1
1
1
1
1
1
1
1
1
1
1
1
1
1
1
1
1
1
1
1
1
1
1
1
1
1
1
1
1
1
1
1
1
1
1
1
1
1
1
1
1
1
1
1
1
1
1
1
1
1
1
1
1
1
1
1
1
1
1
1
1
1
1
1
1
1
1
1
1
1
1
1
1
1
1
1
1
1
1
1
1
1
1
1
1
1
1
1
1
1
1
1
1
1
1
1
1
1
1
1
1
1
1
1
1
1
1
1
1
1
1
1
1
1
1
1
1
1
1
1
1
1
1
1
1
1
1
1
1
1
1
1
1
1
1
1
1
1
1
1
1
1
1
1
1
1
1
1
1
1
1
1
1
1
1
1
1
1
1
1
1
1
1
1
1
1
1
1
1
1
1
1
1
1
1
1
1
1
1
1
1
1
1
1
1
1
1
1
1
1
1
1
1
1
1
1
1
1
1
1
1
1
1
1
1
1
1
1
1
1
1
1
1
1
1
1
1
1
1
1
1
1
1
1
1
1
1
1
1
1
1
1
1
1
1
1
1
1
1
1
1
1
1
1
1
1
1
1
1
1
1
1
1
1
1
1
1
1
1
1
1
1
1
1
1
1
1
1
1
1
1
1
1
1
1
1
1
1
1
1
1
1
1
1
1
1
1
1
1
1
1
1
1
1
1
1
1
1
1
1
1
1
1
1
1
1
1
1
1
1
1
1
1
1
1
1
1
1
1
1
1
1
1
1
1
1
1
1
1
1
1
1
1
1
1
1
1
1
1
1
1
1
1
1
1
1
1
1
1
1
1
1
1
1
1
1
1
1
1
1
1
1
1
1
1
1
1
1
1
1
1
1
1
1
1
1
1
1
1
1
1
1
1
1
1
1
1
1
1
1
1
1
1
1
1
1
1
1
1
1
1
1
1
1
1
1
1
1
1
1
1
1
1
1
1
1
1
1
1
1
1
1
1
1
1
1
1
1
1
1
1
1
1
1
1
1
1
1
1
1
1
1
1
1
1
1
1
1
1
1
1
1
1
1
1
1
1
1
1
1
1
1
1
1
1
1
1
1
1
1
1
1
1
1
1
1
1
1
1
1
1
1
1
1
1
1
1
1
1
1
1
1
1
1
1
1
1
1
1
1
1
1
1
1
1
1
1
1
1
1
1
1
1
1
1
1
1
1
1
1
1
1
1
1
1
1
1
1
1
1
1
1
1
1
1
1
1
1
1
1
1
1
1
1
1
1
1
1
1
1
1
1
1
1
1
1
1
1
1
1
1
1
1
1
1
1
1
1
1
1
1
1
1
1
1
1
1
1
1
1
1
1
1
1
1
1
1
1
1
1
1
1
1
1
1
1
1
1
1
1
1
1
1
1
1
1
1
1
1
1
1
1
1
1
1
1
1
1
1
1
1
1
1
1
1
1
1
1
1
1
1
1
1
1
1
1
1
1
1
1
1
1
1
1
1
1
1
1
1
1
1
1
1
1
1
1
1
1
1
1
1
1
1
1
1
1
1
1
1
1
1
1
1
1
1
1
1
1
1
1
1
1
1
1
1
1
1
1
1
1
1
1
1
1
1
1
1
1
1
1
1
1
1
1
1
1
1
1
1
1
1
1
1
1
1
1
1
1
1
1
1
1
1
1
1
1
1
1
1
1
1
1
1
1
1
1
1
1
1
1
1
1
1
1
1
1
1
1
1
1
1
1
1
1
1
1
1
1
1
1
1
1
1
1
1
1
1
1
1
1
1
1
1
1
1
1
1
1
1
1
1
1
1
1
1
1
1
1
1
1
1
1
1
1
1
1
1
1
1
1
1
1
1
1
1
1
1
1
1
1
1
1
1
1
1
1
1
1
1
1
1
1
1
1
1
1
1
1
1
1
1
1
1
1
1
1
1
1
1
1
1
1
1
1
1
1
1
1
1
1
1
1
1
1
1
1
1
1
1
1
1
1
1
1
1
1
1
1
1
1
1
1
1
1
1
1
1
1
1
1
1
1
1
1
1
1
1
1
1
1
1
1
1
1
1
1
1
1
1
1
1
1
1
1
1
1
1
1
1
1
1
1
1
1
1
1
1
1
1
1
1
1
1
1
1
1
1
1
1
1
1
1
1
1
1
1
1
1
1
1
1
1
1
1
1
1
1
1
1
1
1
1
1
1
1
1
1
1
1
1
1
1
1
1
1
1
1
1
1
1
1
1
1
1
1
1
1
1
1
1
1
1
1
1
1
1
1
1
1
1
1
1
1
1
1
1
1
1
1
1
1
1
1
1
1
1
1
1
1
1
1
1
1
1
1
1
1
1
1
1
1
1
1
1
1
1
1
1
1
1
1
1
1
1
1
1
1
1
1
1
1
1
1
1
1
1
1
1
1
1
1
1
1
1
1
1
1
1
1
1
1
1
1
1
1
1
1
1
1
1
1
1
1
1
1
1
1
1
1
1
1
1
1
1
1
1
1
1
1
1
1
1
1
1
1
1
1
1
1
1
1
1
1
1
1
1
1
1
1
1
1
1
1
1
1
1
1
1
1
1
1
1
1
1
1
1
1
1
1
1
1
1
1
1
1
1
1
1
1
1
1
1
1
1
1
1
1
1
1
1
1
1
1
1
1
1
1
1
1
1
1
1
1
1
1
1
1
1
1
1
1
1
1
1
1
1
1
1
1
1
1
1
1
1
1
1
1
1
1
1
1
1
1
1
1
1
1
1
1
1
1
1
1
1
1
1
1
1
1
1
1
1
1
1
1
1
1
1
1
1
1
1
1
1
1
1
1
1
1
1
1
1
1
1
1
1
1
1
1
1
1
1
1
1
1
1
1
1
1
1
1
1
1
1
1
1
1
1
1
1
1
1
1
1
1
1
1
1
1
1
1
1
1
1
1
1
1
1
1
1
1
1
1
1
1
1
1
1
1
1
1
1
1
1
1
1
1
1
1
1
1
1
1
1
1
1
1
1
1
1
1
1
1
1
1
1
1
1
1
1
1
1
1
1
1
1
1
1
1
1
1
1
1
1
1
1
1
1
1
1
1
1
1
1
1
1
1
1
1
1
1
1
1
1
1.29035
1.74604
2.33901
2.90081
3.52488
4.20277
4.65824
5.08766
5.3401
5.26451
4.95523
4.47579
4.05395
3.77586
3.66765
3.58663
3.56491
3.58916
3.6228
3.65311
3.68618
3.70955
3.72931
3.74146
3.74584
3.74906
3.75457
3.76099
3.76332
3.76237
3.7635
3.7713
3.78538
3.79614
3.79816
3.79672
3.79184
3.78274
3.77401
3.76917
3.7684
3.76863
3.76921
3.77084
3.77145
3.77155
3.76967
3.7658
1.00251
1.01604
1.06589
1.2071
1.41162
1.76279
2.22237
2.75605
3.31433
3.72568
3.91915
4.0323
4.03006
3.95727
3.84998
3.77739
3.73108
3.71238
3.67525
3.66537
3.67495
3.69696
3.72259
3.74832
3.75947
3.76374
3.76146
3.7602
3.76128
3.76119
3.76215
3.76638
3.77137
3.77539
3.77829
3.77777
3.77501
3.771
3.76832
3.76825
3.76886
3.77061
3.77509
3.77872
3.77915
3.77877
3.77591
3.77247
1
0.999979
1.00003
1.0001
1.00141
1.01295
1.06364
1.21891
1.6097
2.33295
3.3424
3.90499
4.30167
4.32486
4.26209
4.12669
3.9569
3.76117
3.66169
3.65704
3.66875
3.68631
3.71435
3.74981
3.76626
3.77092
3.7724
3.77104
3.77162
3.77528
3.77792
3.77958
3.77798
3.77567
3.77266
3.76802
3.76317
3.75994
3.75928
3.75994
3.76192
3.76651
3.7743
3.78061
3.78264
3.78259
3.78144
3.77994
1
1
1
1
0.999999
0.999987
1.00006
1.00007
1.00592
1.0685
1.42002
2.13901
3.16523
3.88132
4.0256
4.02702
3.96082
3.87648
3.81215
3.75359
3.73066
3.70519
3.69152
3.69802
3.7116
3.72968
3.74487
3.75631
3.766
3.77264
3.77841
3.78203
3.7821
3.78131
3.7786
3.77353
3.76986
3.76739
3.76596
3.76635
3.76867
3.77308
3.77827
3.7814
3.78068
3.77843
3.77525
3.77287
1
1
1
1
1
1
1
1
1
0.999928
1.00191
1.04665
1.28526
2.00828
2.82652
3.70016
4.0218
4.03022
3.99014
3.92621
3.81121
3.73807
3.70144
3.67733
3.67545
3.68486
3.69771
3.71315
3.73037
3.74386
3.75449
3.76359
3.77209
3.77528
3.77583
3.77563
3.77525
3.77452
3.77394
3.77508
3.77845
3.78314
3.78614
3.78607
3.78368
3.77996
3.77347
3.7706
1
1
1
1
1
1
1
1
1
0.999997
0.999998
0.999955
1.00067
1.03176
1.22076
1.79777
2.71209
3.4062
3.92155
3.93485
3.89495
3.83715
3.79612
3.75886
3.72541
3.70009
3.69349
3.69474
3.70783
3.73365
3.75195
3.76509
3.77278
3.77498
3.775
3.77492
3.77419
3.77213
3.77079
3.77128
3.77461
3.77812
3.77769
3.77501
3.77159
3.76715
3.76194
3.7624
1
1
1
1
1
1
1
1
1
1
1
0.999998
0.999998
0.999965
1.00053
1.01666
1.20476
1.6671
2.57407
3.21485
3.6733
3.86859
3.86759
3.85329
3.80073
3.75915
3.7377
3.72219
3.72268
3.73068
3.74617
3.76768
3.77596
3.77778
3.77664
3.77529
3.7734
3.7696
3.76717
3.76624
3.7693
3.77311
3.77302
3.77116
3.76855
3.76717
3.76495
3.76675
1
1
1
1
1
1
1
1
1
1
1
1
1
0.999997
0.999998
0.999972
1.00068
1.01265
1.14317
1.61373
2.37098
3.20983
3.50632
3.65824
3.73751
3.76097
3.75841
3.73129
3.72733
3.73403
3.74175
3.75049
3.76077
3.7705
3.77099
3.76887
3.76718
3.76644
3.76657
3.77055
3.77665
3.77894
3.7787
3.77759
3.7755
3.77402
3.77298
3.77339
1
1
1
1
1
1
1
1
1
1
1
1
1
1
1
0.999998
0.999998
0.999981
1.00034
1.01361
1.10776
1.56122
2.27162
3.1192
3.523
3.62516
3.69627
3.68951
3.69838
3.71247
3.71251
3.71785
3.72771
3.73877
3.74906
3.75683
3.76166
3.76604
3.76958
3.77492
3.77968
3.78076
3.78129
3.78155
3.77946
3.77547
3.7742
3.77397
1
1
1
1
1
1
1
1
1
1
1
1
1
1
1
1
1
0.999998
0.999998
0.999985
1.00023
1.013
1.1121
1.48158
2.23912
2.97167
3.53654
3.67357
3.70287
3.71657
3.71594
3.71002
3.71249
3.718
3.72778
3.73897
3.74925
3.75925
3.7675
3.77426
3.77656
3.77638
3.77747
3.77911
3.77767
3.77431
3.77361
3.77301
1
1
1
1
1
1
1
1
1
1
1
1
1
1
1
1
1
1
1
0.999998
0.999999
0.999987
1.00036
1.00886
1.12425
1.46162
2.22524
2.92749
3.46561
3.70083
3.75554
3.74995
3.75513
3.75268
3.74854
3.75342
3.76137
3.76936
3.77924
3.78388
3.78364
3.77965
3.77699
3.77504
3.7716
3.76793
3.76701
3.76632
1
1
1
1
1
1
1
1
1
1
1
1
1
1
1
1
1
1
1
1
1
0.999998
0.999999
0.999987
1.00062
1.0092
1.11436
1.51823
2.25309
2.98356
3.39136
3.63656
3.72891
3.74495
3.74802
3.76577
3.77109
3.77437
3.78111
3.78527
3.78707
3.785
3.78228
3.78043
3.77634
3.77325
3.77239
3.77189
1
1
1
1
1
1
1
1
1
1
1
1
1
1
1
1
1
1
1
1
1
1
1
0.999998
0.999999
0.99999
1.00066
1.01488
1.11663
1.57754
2.29702
3.16726
3.45809
3.57439
3.64534
3.71537
3.72644
3.73868
3.75355
3.76554
3.77219
3.77451
3.77233
3.77113
3.77022
3.77155
3.77427
3.77597
1
1
1
1
1
1
1
1
1
1
1
1
1
1
1
1
1
1
1
1
1
1
1
1
1
0.999998
0.999999
0.999997
1.00072
1.02329
1.14833
1.66562
2.45406
3.24316
3.62114
3.66667
3.6924
3.71079
3.72626
3.74186
3.74815
3.74877
3.7521
3.75715
3.76306
3.76769
3.77007
3.77299
1
1
1
1
1
1
1
1
1
1
1
1
1
1
1
1
1
1
1
1
1
1
1
1
1
1
1
0.999999
0.999998
1.00003
1.00131
1.03287
1.22712
1.82675
2.67806
3.34336
3.69463
3.76673
3.77156
3.78028
3.77551
3.76419
3.76233
3.76738
3.77334
3.7765
3.77704
3.77804
1
1
1
1
1
1
1
1
1
1
1
1
1
1
1
1
1
1
1
1
1
1
1
1
1
1
1
1
1
1
0.999998
1.0001
1.00337
1.05515
1.3719
2.08655
2.91478
3.41792
3.68883
3.76159
3.76055
3.77765
3.78676
3.78888
3.7907
3.79124
3.78944
3.7879
1
1
1
1
1
1
1
1
1
1
1
1
1
1
1
1
1
1
1
1
1
1
1
1
1
1
1
1
1
1
1
1
0.999996
1.00032
1.0102
1.10474
1.58165
2.44528
3.28568
3.5123
3.61262
3.70981
3.73608
3.75053
3.76557
3.77714
3.78287
3.78392
1
1
1
1
1
1
1
1
1
1
1
1
1
1
1
1
1
1
1
1
1
1
1
1
1
1
1
1
1
1
1
1
0.999999
0.999999
1
1.00117
1.03128
1.2266
1.91672
2.82746
3.53902
3.67034
3.70025
3.7192
3.73575
3.75496
3.76842
3.76909
1
1
1
1
1
1
1
1
1
1
1
1
1
1
1
1
1
1
1
1
1
1
1
1
1
1
1
1
1
1
1
1
1
1
1
0.999998
1.00012
1.00484
1.08915
1.47805
2.40431
3.22326
3.68013
3.78946
3.79317
3.79446
3.79517
3.78521
1
1
1
1
1
1
1
1
1
1
1
1
1
1
1
1
1
1
1
1
1
1
1
1
1
1
1
1
1
1
1
1
1
1
1
1
0.999999
1
1.00103
1.02207
1.25966
1.95499
2.92818
3.42391
3.69481
3.78777
3.78355
3.78448
1
1
1
1
1
1
1
1
1
1
1
1
1
1
1
1
1
1
1
1
1
1
1
1
1
1
1
1
1
1
1
1
1
1
1
1
1
1
0.999999
1.00011
1.00755
1.094
1.60423
2.59616
3.4317
3.60011
3.66321
3.70368
1
1
1
1
1
1
1
1
1
1
1
1
1
1
1
1
1
1
1
1
1
1
1
1
1
1
1
1
1
1
1
1
1
1
1
1
1
1
1
1
1.00001
1.00151
1.04281
1.34707
2.22431
3.205
3.67126
3.7256
1
1
1
1
1
1
1
1
1
1
1
1
1
1
1
1
1
1
1
1
1
1
1
1
1
1
1
1
1
1
1
1
1
1
1
1
1
1
1
1
1
1
1.00039
1.01581
1.19802
1.91523
2.8747
3.56406
1
1
1
1
1
1
1
1
1
1
1
1
1
1
1
1
1
1
1
1
1
1
1
1
1
1
1
1
1
1
1
1
1
1
1
1
1
1
1
1
1
1
1
1.00011
1.00554
1.10332
1.69177
2.75482
1
1
1
1
1
1
1
1
1
1
1
1
1
1
1
1
1
1
1
1
1
1
1
1
1
1
1
1
1
1
1
1
1
1
1
1
1
1
1
1
1
1
1
1
1.00002
1.00239
1.07077
1.43638
1
1
1
1
1
1
1
1
1
1
1
1
1
1
1
1
1
1
1
1
1
1
1
1
1
1
1
1
1
1
1
1
1
1
1
1
1
1
1
1
1
1
1
1
1
1.00001
1.0014
1.01629
1
1
1
1
1
1
1
1
1
1
1
1
1
1
1
1
1
1
1
1
1
1
1
1
1
1
1
1
1
1
1
1
1
1
1
1
1
1
1
1
1
1
1
1
1
1
1.00001
0.999834
1
1
1
1
1
1
1
1
1
1
1
1
1
1
1
1
1
1
1
1
1
1
1
1
1
1
1
1
1
1
1
1
1
1
1
1
1
1
1
1
1
1
1
1
1
1
1
0.999939
1
1
1
1
1
1
1
1
1
1
1
1
1
1
1
1
1
1
1
1
1
1
1
1
1
1
1
1
1
1
1
1
1
1
1
1
1
1
1
1
1
1
1
1
1
1
1
0.99999
1
1
1
1
1
1
1
1
1
1
1
1
1
1
1
1
1
1
1
1
1
1
1
1
1
1
1
1
1
1
1
1
1
1
1
1
1
1
1
1
1
1
1
1
1
1
1
1
1
1
1
1
1
1
1
1
1
1
1
1
1
1
1
1
1
1
1
1
1
1
1
1
1
1
1
1
1
1
1
1
1
1
1
1
1
1
1
1
1
1
1
1
1
1
1
1
1
1
1
1
1
1
1
1
1
1
1
1
1
1
1
1
1
1
1
1
1
1
1
1
1
1
1
1
1
1
1
1
1
1
1
1
1
1
1
1
1
1
1
1
1
1
1
1
1
1
1
1
1
1
1
1
1
1
1
1
1
1
1
1
1
1
1
1
1
1
1
1
1
1
1
1
1
1
1
1
1
1
1
1
1
1
1
1
1
1
1
1
1
1
1
1
1
1
1
1
1
1
1
1
1
1
1
1
1
1
1
1
1
1
1
1
1
1
1
1
1
1
1
1
1
1
1
1
1
1
1
1
1
1
1
1
1
1
1
1
1
1
1
1
1
1
1
1
1
1
1
1
1
1
1
1
1
1
1
1
1
1
1
1
1
1
1
1
1
1
1
1
1
1
1
1
1
1
1
1
1
1
1
1
1
1
1
1
1
1
1
1
1
1
1
1
1
1
1
1
1
1
1
1
1
1
1
1
1
1
1
1
1
1
1
1
1
1
1
1
1
1
1
1
1
1
1
1
1
1
1
1
1
1
1
1
1
1
1
0.99999
1
1
1
1
1
1
1
1
1
1
1
1
1
1
1
1
1
1
1
1
1
1
1
1
1
1
1
1
1
1
1
1
1
1
1
1
1
1
1
1
1
1
1
1
1
1
1
0.999938
1
1
1
1
1
1
1
1
1
1
1
1
1
1
1
1
1
1
1
1
1
1
1
1
1
1
1
1
1
1
1
1
1
1
1
1
1
1
1
1
1
1
1
1
1
1
1.00001
0.99983
1
1
1
1
1
1
1
1
1
1
1
1
1
1
1
1
1
1
1
1
1
1
1
1
1
1
1
1
1
1
1
1
1
1
1
1
1
1
1
1
1
1
1
1
1
1.00001
1.00139
1.01646
1
1
1
1
1
1
1
1
1
1
1
1
1
1
1
1
1
1
1
1
1
1
1
1
1
1
1
1
1
1
1
1
1
1
1
1
1
1
1
1
1
1
1
1
1.00002
1.00239
1.07062
1.43962
1
1
1
1
1
1
1
1
1
1
1
1
1
1
1
1
1
1
1
1
1
1
1
1
1
1
1
1
1
1
1
1
1
1
1
1
1
1
1
1
1
1
1
1.00011
1.00556
1.10304
1.69174
2.7611
1
1
1
1
1
1
1
1
1
1
1
1
1
1
1
1
1
1
1
1
1
1
1
1
1
1
1
1
1
1
1
1
1
1
1
1
1
1
1
1
1
1
1.00039
1.01581
1.19813
1.91394
2.87685
3.56452
1
1
1
1
1
1
1
1
1
1
1
1
1
1
1
1
1
1
1
1
1
1
1
1
1
1
1
1
1
1
1
1
1
1
1
1
1
1
1
1
1.00001
1.00151
1.0428
1.34714
2.22401
3.20457
3.67295
3.72561
1
1
1
1
1
1
1
1
1
1
1
1
1
1
1
1
1
1
1
1
1
1
1
1
1
1
1
1
1
1
1
1
1
1
1
1
1
1
0.999999
1.00011
1.00755
1.09399
1.60426
2.59609
3.43137
3.60063
3.66314
3.70334
1
1
1
1
1
1
1
1
1
1
1
1
1
1
1
1
1
1
1
1
1
1
1
1
1
1
1
1
1
1
1
1
1
1
1
1
0.999999
1
1.00103
1.02207
1.25967
1.95491
2.92849
3.42368
3.69459
3.78798
3.78345
3.78424
1
1
1
1
1
1
1
1
1
1
1
1
1
1
1
1
1
1
1
1
1
1
1
1
1
1
1
1
1
1
1
1
1
1
1
0.999998
1.00012
1.00484
1.08915
1.47806
2.40429
3.22324
3.68026
3.78936
3.79314
3.79451
3.7952
3.78516
1
1
1
1
1
1
1
1
1
1
1
1
1
1
1
1
1
1
1
1
1
1
1
1
1
1
1
1
1
1
1
1
0.999999
0.999999
1
1.00117
1.03128
1.2266
1.91672
2.82748
3.539
3.67033
3.70028
3.7192
3.73575
3.75495
3.76842
3.76909
1
1
1
1
1
1
1
1
1
1
1
1
1
1
1
1
1
1
1
1
1
1
1
1
1
1
1
1
1
1
1
1
0.999996
1.00032
1.0102
1.10474
1.58165
2.44527
3.28569
3.5123
3.61262
3.70979
3.73609
3.75054
3.76558
3.77713
3.78286
3.78392
1
1
1
1
1
1
1
1
1
1
1
1
1
1
1
1
1
1
1
1
1
1
1
1
1
1
1
1
1
1
0.999998
1.0001
1.00337
1.05515
1.3719
2.08655
2.91478
3.41792
3.68883
3.76159
3.76055
3.77764
3.78676
3.78888
3.79071
3.79124
3.78943
3.7879
1
1
1
1
1
1
1
1
1
1
1
1
1
1
1
1
1
1
1
1
1
1
1
1
1
1
1
0.999999
0.999998
1.00003
1.00131
1.03287
1.22712
1.82675
2.67806
3.34336
3.69463
3.76673
3.77156
3.78028
3.77551
3.76419
3.76233
3.76738
3.77334
3.7765
3.77704
3.77804
1
1
1
1
1
1
1
1
1
1
1
1
1
1
1
1
1
1
1
1
1
1
1
1
1
0.999998
0.999999
0.999997
1.00072
1.02329
1.14833
1.66562
2.45406
3.24316
3.62115
3.66667
3.69241
3.71079
3.72626
3.74186
3.74816
3.74877
3.7521
3.75715
3.76306
3.7677
3.77007
3.77299
1
1
1
1
1
1
1
1
1
1
1
1
1
1
1
1
1
1
1
1
1
1
1
0.999998
0.999999
0.99999
1.00066
1.01488
1.11663
1.57754
2.29702
3.16726
3.45809
3.57439
3.64535
3.71537
3.72644
3.73868
3.75355
3.76554
3.77219
3.77451
3.77233
3.77113
3.77022
3.77155
3.77427
3.77597
1
1
1
1
1
1
1
1
1
1
1
1
1
1
1
1
1
1
1
1
1
0.999998
0.999999
0.999987
1.00062
1.0092
1.11436
1.51823
2.25309
2.98356
3.39136
3.63656
3.72891
3.74495
3.74802
3.76577
3.77109
3.77437
3.78111
3.78527
3.78707
3.785
3.78228
3.78043
3.77634
3.77325
3.77239
3.77189
1
1
1
1
1
1
1
1
1
1
1
1
1
1
1
1
1
1
1
0.999998
0.999999
0.999987
1.00036
1.00886
1.12425
1.46162
2.22524
2.92749
3.46561
3.70083
3.75554
3.74995
3.75513
3.75268
3.74854
3.75342
3.76137
3.76936
3.77924
3.78388
3.78364
3.77965
3.77699
3.77504
3.7716
3.76794
3.76701
3.76632
1
1
1
1
1
1
1
1
1
1
1
1
1
1
1
1
1
0.999998
0.999998
0.999985
1.00023
1.013
1.1121
1.48158
2.23912
2.97167
3.53654
3.67357
3.70287
3.71657
3.71594
3.71003
3.71249
3.718
3.72778
3.73897
3.74925
3.75925
3.76749
3.77426
3.77656
3.77638
3.77747
3.77911
3.77767
3.77431
3.77361
3.77301
1
1
1
1
1
1
1
1
1
1
1
1
1
1
1
0.999998
0.999998
0.999981
1.00034
1.01361
1.10776
1.56122
2.27162
3.1192
3.523
3.62516
3.69627
3.68951
3.69838
3.71247
3.71251
3.71785
3.72771
3.73877
3.74906
3.75683
3.76166
3.76604
3.76958
3.77492
3.77967
3.78076
3.78129
3.78155
3.77946
3.77547
3.7742
3.77397
1
1
1
1
1
1
1
1
1
1
1
1
1
0.999997
0.999998
0.999972
1.00068
1.01265
1.14317
1.61374
2.37097
3.20983
3.50632
3.65824
3.73751
3.76096
3.7584
3.73129
3.72733
3.73403
3.74175
3.75049
3.76077
3.7705
3.77099
3.76887
3.76718
3.76644
3.76657
3.77055
3.77665
3.77894
3.7787
3.77759
3.7755
3.77402
3.77298
3.77339
1
1
1
1
1
1
1
1
1
1
1
0.999998
0.999998
0.999965
1.00053
1.01666
1.20476
1.6671
2.57407
3.21485
3.67329
3.86859
3.86759
3.85329
3.80073
3.75915
3.7377
3.72219
3.72267
3.73068
3.74617
3.76768
3.77596
3.77778
3.77664
3.77529
3.7734
3.7696
3.76717
3.76624
3.7693
3.77311
3.77302
3.77116
3.76855
3.76717
3.76495
3.76675
1
1
1
1
1
1
1
1
1
0.999997
0.999998
0.999955
1.00067
1.03176
1.22076
1.79777
2.71209
3.40619
3.92155
3.93485
3.89495
3.83715
3.79612
3.75886
3.72541
3.70009
3.69349
3.69474
3.70783
3.73365
3.75195
3.76509
3.77278
3.77498
3.775
3.77491
3.77419
3.77213
3.77079
3.77128
3.77461
3.77812
3.77769
3.77501
3.77159
3.76715
3.76194
3.7624
1
1
1
1
1
1
1
1
1
0.999928
1.00191
1.04665
1.28525
2.00828
2.82653
3.70015
4.02181
4.03022
3.99014
3.92621
3.81121
3.73807
3.70144
3.67733
3.67545
3.68486
3.69771
3.71315
3.73037
3.74386
3.75449
3.76359
3.77209
3.77528
3.77583
3.77563
3.77525
3.77452
3.77394
3.77508
3.77845
3.78314
3.78614
3.78607
3.78368
3.77996
3.77347
3.7706
1
1
1
1
0.999999
0.999987
1.00006
1.00007
1.00592
1.0685
1.42002
2.13901
3.16523
3.88132
4.0256
4.02702
3.96082
3.87648
3.81215
3.75359
3.73066
3.70519
3.69152
3.69802
3.7116
3.72968
3.74487
3.75631
3.766
3.77264
3.77841
3.78203
3.7821
3.78131
3.7786
3.77353
3.76986
3.76739
3.76596
3.76635
3.76867
3.77308
3.77827
3.7814
3.78068
3.77843
3.77525
3.77287
1
0.999979
1.00003
1.0001
1.00141
1.01295
1.06364
1.21891
1.6097
2.33295
3.3424
3.90499
4.30167
4.32486
4.26209
4.12669
3.9569
3.76117
3.66169
3.65704
3.66875
3.68631
3.71435
3.74981
3.76626
3.77092
3.7724
3.77104
3.77162
3.77528
3.77792
3.77958
3.77798
3.77567
3.77266
3.76802
3.76317
3.75994
3.75928
3.75994
3.76192
3.76651
3.7743
3.78061
3.78264
3.78259
3.78144
3.77994
1.00251
1.01604
1.06589
1.2071
1.41162
1.76279
2.22237
2.75605
3.31433
3.72568
3.91915
4.0323
4.03006
3.95727
3.84998
3.77739
3.73108
3.71238
3.67525
3.66537
3.67495
3.69696
3.72259
3.74832
3.75947
3.76374
3.76146
3.7602
3.76128
3.76119
3.76215
3.76638
3.77137
3.77539
3.77829
3.77777
3.77501
3.771
3.76832
3.76825
3.76886
3.77061
3.77509
3.77872
3.77915
3.77877
3.77591
3.77247
1.29035
1.74604
2.33901
2.90082
3.52488
4.20277
4.65824
5.08766
5.3401
5.26451
4.95523
4.47579
4.05395
3.77586
3.66765
3.58663
3.56491
3.58916
3.6228
3.65311
3.68618
3.70955
3.72931
3.74146
3.74584
3.74906
3.75457
3.76099
3.76332
3.76237
3.76349
3.7713
3.78538
3.79614
3.79816
3.79672
3.79184
3.78274
3.77401
3.76917
3.7684
3.76863
3.76921
3.77084
3.77145
3.77155
3.76967
3.7658
2.6396
1.73559
1.15185
0.73288
0.678426
0.719575
0.705118
0.71522
0.788147
0.884573
0.919365
0.934189
0.971826
1.01935
1.03253
1.04038
1.06132
1.07548
1.07341
1.06845
1.06737
1.06628
1.05775
1.05439
1.05807
1.06018
1.05737
1.0477
1.03776
1.03675
1.03777
1.03921
1.04177
1.04367
1.04439
1.04478
1.04416
1.0424
1.04264
1.04469
1.04873
1.05055
1.05066
1.05049
1.0498
1.04819
1.04681
1.04702
1.05433
1.2049
1.8719
3.24497
5.19869
7.76365
10.263
10.264
9.40144
8.37008
7.92748
7.77541
7.64192
7.51951
7.43446
7.32705
7.19026
6.97528
6.67347
6.50772
6.43237
6.36322
6.27118
6.15627
5.98536
5.74248
5.54072
5.44993
5.40205
5.38468
5.3525
5.29111
5.19686
5.02161
4.80757
4.6654
4.58914
4.53953
4.50067
4.4587
4.40131
4.29042
4.15635
4.08074
4.02826
3.98273
3.9377
3.88154
3.78908
3.64259
3.5362
3.49461
3.46392
3.43902
3.42717
3.40767
3.3781
3.32879
3.21134
3.05854
2.98053
2.94834
2.92532
2.90554
2.89313
2.87796
2.85704
2.82982
2.77034
2.6808
2.61896
2.58458
2.55724
2.52934
2.49069
2.43807
2.39577
2.37125
2.35269
2.33659
2.32156
2.30461
2.279
2.22573
2.14088
2.09617
2.08209
2.06731
2.04972
2.03506
2.02068
2.00508
1.98216
1.94324
1.90097
1.88133
1.89514
1.99278
2.28592
2.89222
3.70756
4.40151
5.08538
5.61255
5.69724
5.62523
5.42604
5.1609
5.03863
5.01287
4.99591
4.96895
4.93145
4.89751
4.84279
4.71464
4.60607
4.56947
4.54491
4.54705
4.56273
4.53962
4.5077
4.45009
4.3249
4.20926
4.17428
4.15494
4.14065
4.13643
4.11799
4.08964
4.05723
4.00303
3.92606
3.8756
3.85016
3.82745
3.80083
3.76755
3.72531
3.67541
3.63058
3.56188
3.36341
2.72437
2.24755
1.75082
1.40264
1.2799
1.1459
1.02315
1.01488
0.986826
0.92076
0.903338
0.915688
0.941345
0.966846
0.980889
1.00552
1.02504
1.02409
1.02592
1.03149
1.04433
1.05107
1.0579
1.06133
1.06125
1.0567
1.04653
1.04203
1.04241
1.04293
1.04413
1.04711
1.04877
1.04909
1.04884
1.04712
1.04548
1.04515
1.04561
1.04696
1.04779
1.04814
1.04813
1.04745
1.04464
1.04487
1.05748
1.19852
1.92899
2.81935
3.18858
3.8702
4.75893
6.5694
8.08487
8.71433
8.53599
8.21988
7.86753
7.63573
7.52577
7.4566
7.35665
7.20928
7.02341
6.77394
6.52555
6.39908
6.31887
6.23366
6.12922
6.00138
5.83855
5.66042
5.50495
5.40924
5.35307
5.29458
5.22225
5.12699
5.00515
4.86518
4.74489
4.64921
4.5669
4.49938
4.44825
4.38319
4.28003
4.15234
4.08727
4.05077
4.01008
3.96212
3.90284
3.8131
3.67839
3.56547
3.51477
3.48219
3.45464
3.42529
3.39545
3.36194
3.30989
3.2125
3.08824
3.00621
2.9656
2.94029
2.92048
2.90184
2.8818
2.85873
2.82618
2.77457
2.70413
2.65095
2.6158
2.58389
2.54883
2.50733
2.46021
2.42208
2.39896
2.37945
2.35975
2.33949
2.31792
2.2895
2.2415
2.16799
2.10602
2.08275
2.07347
2.06741
2.05389
2.03648
2.01916
1.99715
1.96159
1.94072
1.9645
2.08564
2.39306
2.78633
3.11501
3.43117
3.86715
4.2824
4.73329
5.00462
5.21624
5.24866
5.18148
5.09628
5.05107
5.02074
4.99166
4.95764
4.91942
4.85563
4.7378
4.62365
4.58166
4.55789
4.54479
4.53935
4.52201
4.49191
4.44346
4.35258
4.2469
4.19465
4.17296
4.15786
4.14872
4.12837
4.09891
4.06372
4.01293
3.94539
3.88872
3.85375
3.82938
3.80811
3.78037
3.74001
3.69085
3.64558
3.57385
3.66772
3.32874
2.8656
2.40527
1.95133
1.66599
1.45428
1.21359
1.09153
1.03935
0.962979
0.92083
0.926679
0.942328
0.943765
0.946268
0.960687
0.980732
0.987362
0.993091
1.00852
1.03089
1.04239
1.04822
1.05193
1.05246
1.05049
1.04721
1.04657
1.04745
1.04842
1.05089
1.05289
1.05261
1.05148
1.04853
1.04525
1.04454
1.04435
1.04461
1.04563
1.04682
1.04699
1.04634
1.04444
1.04714
1.08142
1.27029
2.00411
3.09395
3.38094
3.33142
3.3536
3.47712
4.08739
5.83616
7.95162
8.77203
8.56496
8.00871
7.5777
7.45981
7.37441
7.25527
7.11546
7.00033
6.85481
6.61529
6.37031
6.23586
6.13613
6.04446
5.95284
5.8705
5.77117
5.63395
5.46539
5.31897
5.21425
5.11148
5.00358
4.91325
4.86004
4.8055
4.72552
4.63243
4.54302
4.43399
4.3222
4.22448
4.14908
4.09251
4.03654
3.9769
3.91426
3.84952
3.7723
3.67222
3.58065
3.53906
3.51501
3.48321
3.4437
3.39617
3.33429
3.25154
3.1586
3.08729
3.04534
3.00466
2.96601
2.93267
2.90095
2.87038
2.8376
2.79009
2.72463
2.66956
2.63325
2.60233
2.56669
2.52436
2.48098
2.4386
2.39861
2.3692
2.35188
2.3343
2.31272
2.28596
2.25106
2.20297
2.15444
2.11957
2.09722
2.07499
2.04738
2.0252
2.00999
1.99402
1.97864
1.97839
2.02564
2.23112
2.61351
2.99856
3.22292
3.22774
3.24579
3.33578
3.5659
3.95454
4.43892
4.90984
5.12754
5.17141
5.14568
5.1065
5.03317
4.98965
4.95726
4.90219
4.82329
4.73958
4.66593
4.61135
4.57062
4.53374
4.50106
4.47296
4.44437
4.40348
4.34979
4.29837
4.24245
4.18013
4.14049
4.1158
4.09008
4.06043
4.02574
3.98459
3.9445
3.90881
3.87393
3.83646
3.79853
3.75904
3.71626
3.67027
3.63004
3.56702
3.75092
3.61965
3.3172
2.92829
2.47979
2.12336
1.85842
1.57603
1.38296
1.29669
1.18326
1.05823
1.04783
1.02346
0.974132
0.955524
0.955791
0.947424
0.942553
0.945876
0.96252
0.995832
1.01718
1.02521
1.03205
1.03835
1.03986
1.04058
1.04182
1.04619
1.05382
1.05816
1.05847
1.05761
1.05535
1.05146
1.04961
1.04962
1.05052
1.05064
1.04989
1.0494
1.0472
1.04412
1.04746
1.11312
1.48528
2.14074
3.12896
3.53015
3.5263
3.42862
3.34209
3.31328
3.32003
3.63036
5.04664
7.33387
8.12843
7.92386
7.69947
7.50305
7.30498
7.14746
7.05197
6.98308
6.88203
6.69183
6.38273
6.15251
6.05456
5.99034
5.96433
5.92088
5.84284
5.72503
5.52102
5.26961
5.11388
5.02384
4.95739
4.90474
4.86539
4.83322
4.78567
4.69847
4.5472
4.38537
4.26829
4.19794
4.15362
4.10874
4.05267
3.98599
3.90819
3.82703
3.76167
3.70581
3.64245
3.57188
3.49851
3.44894
3.40973
3.36121
3.28937
3.20658
3.15165
3.12274
3.08709
3.04071
2.98859
2.94367
2.91036
2.8735
2.81966
2.75952
2.70629
2.6651
2.63591
2.60744
2.57221
2.52809
2.48454
2.44787
2.40619
2.36044
2.3368
2.32372
2.30998
2.28673
2.23745
2.17591
2.14598
2.1342
2.11777
2.0874
2.0478
2.01733
2.01479
2.00668
2.01743
2.12904
2.4464
2.88986
3.20066
3.32201
3.35625
3.33049
3.29035
3.26792
3.28375
3.37283
3.61271
4.0585
4.54171
4.91105
5.01021
5.05593
5.07782
5.05878
4.99021
4.8972
4.82601
4.77023
4.7095
4.6467
4.58869
4.53408
4.48143
4.4402
4.41077
4.38391
4.36108
4.33124
4.28262
4.21457
4.15248
4.10931
4.07524
4.04031
4.00579
3.97772
3.95755
3.93509
3.90234
3.85776
3.80353
3.7499
3.70189
3.65982
3.62472
3.56912
3.76155
3.73076
3.58789
3.32374
2.92842
2.55984
2.27059
1.93501
1.69651
1.56159
1.42054
1.24449
1.17263
1.11297
1.03087
0.971359
0.966877
0.951163
0.94103
0.945316
0.959306
0.972963
0.983591
0.989242
0.994651
1.00504
1.01415
1.02298
1.03058
1.03769
1.04978
1.05459
1.05483
1.05358
1.05099
1.05084
1.05235
1.05521
1.05726
1.057
1.05548
1.05233
1.04629
1.04669
1.10755
1.63844
2.50541
3.12568
3.52114
3.5787
3.53959
3.45665
3.35265
3.30398
3.24871
3.20619
3.34925
4.3666
6.26011
7.69339
7.80986
7.56267
7.22625
7.0671
7.01492
6.96214
6.84265
6.66788
6.40473
6.14451
6.01978
5.95314
5.92045
5.88214
5.80105
5.70623
5.53177
5.25921
5.07716
5.0059
4.95344
4.91857
4.88489
4.82956
4.75814
4.64989
4.48259
4.34085
4.26392
4.21067
4.15331
4.08535
4.01783
3.9527
3.8809
3.80897
3.74641
3.6929
3.64482
3.58263
3.50488
3.43648
3.37945
3.32152
3.25969
3.20064
3.14821
3.1026
3.07335
3.05371
3.03041
2.99115
2.93122
2.85294
2.77688
2.73113
2.70733
2.68756
2.66304
2.6342
2.59944
2.55701
2.50598
2.45131
2.40073
2.36262
2.33639
2.31385
2.29055
2.26029
2.21441
2.17105
2.15482
2.13987
2.12052
2.09494
2.06396
2.04181
2.03048
2.06933
2.25368
2.64038
3.07472
3.35047
3.494
3.50151
3.47515
3.40955
3.3233
3.25421
3.21304
3.20587
3.23226
3.36631
3.7306
4.2255
4.70023
4.95758
5.09016
5.0629
4.97454
4.87726
4.81645
4.76744
4.70871
4.64963
4.60293
4.54962
4.48014
4.42794
4.39667
4.36614
4.3321
4.30442
4.28065
4.24397
4.17818
4.1137
4.07002
4.035
4.00339
3.97434
3.94548
3.91466
3.88006
3.83524
3.77685
3.72203
3.68505
3.6544
3.62712
3.58232
3.76168
3.74627
3.69757
3.563
3.2886
2.94277
2.64882
2.33042
2.04538
1.85864
1.68243
1.49048
1.38339
1.30237
1.1924
1.09874
1.07793
1.04258
0.996694
0.993522
0.993985
0.983613
0.96832
0.964817
0.963176
0.965605
0.975339
0.989863
1.00934
1.02624
1.0403
1.04801
1.04911
1.04833
1.04704
1.04768
1.05142
1.05585
1.05722
1.05707
1.05538
1.05069
1.05415
1.12274
1.64638
2.7311
3.23004
3.46137
3.56898
3.51474
3.45976
3.43849
3.38119
3.28352
3.19459
3.13733
3.10803
3.17278
3.75414
5.37268
7.0851
7.2604
7.22251
7.12741
7.05526
6.94511
6.8024
6.65096
6.43861
6.20017
6.02032
5.91652
5.85203
5.81673
5.75672
5.66877
5.52739
5.28273
5.09095
5.01763
4.9696
4.92675
4.87331
4.81012
4.72412
4.58408
4.41773
4.3263
4.27432
4.22154
4.16274
4.09673
4.01763
3.92812
3.84545
3.78308
3.73807
3.69971
3.65653
3.59809
3.51779
3.42011
3.33906
3.28227
3.23597
3.19105
3.14983
3.11992
3.09382
3.05802
3.01592
2.96881
2.89586
2.81507
2.76453
2.73069
2.69781
2.66361
2.63193
2.59963
2.56631
2.53171
2.49413
2.45175
2.41181
2.37837
2.34445
2.30307
2.25608
2.22248
2.20554
2.19427
2.18119
2.1635
2.14428
2.12594
2.09845
2.08756
2.14655
2.41676
2.84529
3.22189
3.48618
3.55158
3.55798
3.54194
3.48341
3.39448
3.31975
3.25814
3.21601
3.19699
3.18872
3.1922
3.25547
3.47702
3.91526
4.41347
4.8151
4.90202
4.90507
4.8874
4.84632
4.79346
4.72766
4.66575
4.61464
4.5553
4.47343
4.41382
4.38101
4.35046
4.32014
4.29496
4.26915
4.2384
4.19607
4.13115
4.07226
4.03314
4.00117
3.97314
3.94845
3.92118
3.8752
3.80249
3.7338
3.69916
3.67564
3.65103
3.63296
3.59983
3.76692
3.75597
3.74106
3.68533
3.52244
3.27459
2.99208
2.6586
2.39219
2.17288
1.96085
1.75078
1.613
1.49676
1.36509
1.26008
1.20975
1.15629
1.06801
1.03733
1.0245
0.997988
0.976015
0.972939
0.967651
0.965563
0.967477
0.974434
0.989805
1.00566
1.01478
1.02207