/*--------------------------------*- C++ -*----------------------------------*\
  =========                 |
  \\      /  F ield         | OpenFOAM: The Open Source CFD Toolbox
   \\    /   O peration     | Website:  https://openfoam.org
    \\  /    A nd           | Version:  7
     \\/     M anipulation  |
\*---------------------------------------------------------------------------*/
FoamFile
{
    version     2.0;
    format      ascii;
    class       volScalarField;
    location    "2.3";
    object      T;
}
// * * * * * * * * * * * * * * * * * * * * * * * * * * * * * * * * * * * * * //

dimensions      [0 0 0 1 0 0 0];

internalField   nonuniform List<scalar> 
18432
(
1
1
1
1
1
1
1
1
1
1
1
1
1
1
1
1
1
1
1
1
1
1
1
1
1
1
1
1
1
1
1
1
1
1
1
1
1
1
1
1
1
1
1
1
1
1
1
1
1
1
1
1
1
1
1
1
1
1
1
1
1
1
1
1
1
1
1
1
1
1
1
1
1
1
1
1
1
1
1
1
1
1
1
1
1
1
1
1
1
1
1
1
1
1
1
1
1
1
1
1
1
1
1
1
1
1
1
1
1
1
1
1
1
1
1
1
1
1
1
1
1
1
1
1
1
1
1
1
1
1
1
1
1
1
1
1
1
1
1
1
1
1
1
1
1
1
1
1
1
1
1
1
1
1
1
1
1
1
1
1
1
1
1
1
1
1
1
1
1
1
1
1
1
1
1
1
1
1
1
1
1
1
1
1
1
1
1
1
1
1
1
1
1
1
1
1
1
1
1
1
1
1
1
1
1
1
1
1
1
1
1
1
1
1
1
1
1
1
1
1
1
1
1
1
1
1
1
1
1
1
1
1
1
1
1
1
1
1
1
1
1
1
1
1
1
1
1
1
1
1
1
1
1
1
1
1
1
1
1
1
1
1
1
1
1
1
1
1
1
1
1
1
1
1
1
1
1
1
1
1
1
1
1
1
1
1
1
1
1
1
1
1
1
1
1
1
1
1
1
1
1
1
1
1
1
1
1
1
1
1
1
1
1
1
1
1
1
1
1
1
1
1
1
1
1
1
1
1
1
1
1
1
1
1
1
1
1
1
1
1
1
1
1
1
1
1
1
1
1
1
1
1
1
1
1
1
1
1
1
1
1
1
1
1
1
1
1
1
1
1
1
1
1
1
1
1
1
1
1
1
1
1
1
1
1
1
1
1
1
1
1
1
1
1
1
1
1
1
1
1
1
1
1
1
1
1
1
1
1
1
1
1
1
1
1
1
1
1
1
1
1
1
1
1
1
1
1
1
1
1
1
1
1
1
1
1
1
1
1
1
1
1
1
1
1
1
1
1
1
1
1
1
1
1
1
1
1
1
1
1
1
1
1
1
1
1
1
1
1
1
1
1
1
1
1
1
1
1
1
1
1
1
1
1
1
1
1
1
1
1
1
1
1
1
1
1
1
1
1
1
1
1
1
1
1
1
1
1
1
1
1
1
1
1
1
1
1
1
1
1
1
1
1
1
1
1
1
1
1
1
1
1
1
1
1
1
1
1
1
1
1
1
1
1
1
1
1
1
1
1
1
1
1
1
1
1
1
1
1
1
1
1
1
1
1
1
1
1
1
1
1
1
1
1
1
1
1
1
1
1
1
1
1
1
1
1
1
1
1
1
1
1
1
1
1
1
1
1
1
1
1
1
1
1
1
1
1
1
1
1
1
1
1
1
1
1
1
1
1
1
1
1
1
1
1
1
1
1
1
1
1
1
1
1
1
1
1
1
1
1
1
1
1
1
1
1
1
1
1
1
1
1
1
1
1
1
1
1
1
1
1
1
1
1
1
1
1
1
1
1
1
1
1
1
1
1
1
1
1
1
1
1
1
1
1
1
1
1
1
1
1
1
1
1
1
1
1
1
1
1
1
1
1
1
1
1
1
1
1
1
1
1
1
1
1
1
1
1
1
1
1
1
1
1
1
1
1
1
1
1
1
1
1
1
1
1
1
1
1
1
1
1
1
1
1
1
1
1
1
1
1
1
1
1
1
1
1
1
1
1
1
1
1
1
1
1
1
1
1
1
1
1
1
1
1
1
1
1
1
1
1
1
1
1
1
1
1
1
1
1
1
1
1
1
1
1
1
1
1
1
1
1
1
1
1
1
1
1
1
1
1
1
1
1
1
1
1
1
1
1
1
1
1
1
1
1
1
1
1
1
1
1
1
1
1
1
1
1
1
1
1
1
1
1
1
1
1
1
1
1
1
1
1
1
1
1
1
1
1
1
1
1
1
1
1
1
1
1
1
1
1
1
1
1
1
1
1
1
1
1
1
1
1
1
1
1
1
1
1
1
1
1
1
1
1
1
1
1
1
1
1
1
1
1
1
1
1
1
1
1
1
1
1
1
1
1
1
1
1
1
1
1
1
1
1
1
1
1
1
1
1
1
1
1
1
1
1
1
1
1
1
1
1
1
1
1
1
1
1
1
1
1
1
1
1
1
1
1
1
1
1
1
1
1
1
1
1
1
1
1
1
1
1
1
1
1
1
1
1
1
1
1
1
1
1
1
1
1
1
1
1
1
1
1
1
1
1
1
1
1
1
1
1
1
1
1
1
1
1
1
1
1
1
1
1
1
1
1
1
1
1
1
1
1
1
1
1
1
1
1
1
1
1
1
1
1
1
1
1
1
1
1
1
1
1
1
1
1
1
1
1
1
1
1
1
1
1
1
1
1
1
1
1
1
1
1
1
1
1
1
1
1
1
1
1
1
1
1
1
1
1
1
1
1
1
1
1
1
1
1
1
1
1
1
1
1
1
1
1
1
1
1
1
1
1
1
1
1
1
1
1
1
1
1
1
1
1
1
1
1
1
1
1
1
1
1
1
1
1
1
1
1
1
1
1
1
1
1
1
1
1
1
1
1
1
1
1
1
1
1
1
1
1
1
1
1
1
1
1
1
1
1
1
1
1
1
1
1
1
1
1
1
1
1
1
1
1
1
1
1
1
1
1
1
1
1
1
1
1
1
1
1
1
1
1
1
1
1
1
1
1
1
1
1
1
1
1
1
1
1
1
1
1
1
1
1
1
1
1
1
1
1
1
1
1
1
1
1
1
1
1
1
1
1
1
1
1
1
1
1
1
1
1
1
1
1
1
1
1
1
1
1
1
1
1
1
1
1
1
1
1
1
1
1
1
1
1
1
1
1
1
1
1
1
1
1
1
1
1
1
1
1
1
1
1
1
1
1
1
1
1
1
1
1
1
1
1
1
1
1
1
1
1
1
1
1
1
1
1
1
1
1
1
1
1
1
1
1
1
1
1
1
1
1
1
1
1
1
1
1
1
1
1
1
1
1
1
1
1
1
1
1
1
1
1
1
1
1
1
1
1
1
1
1
1
1
1
1
1
1
1
1
1
1
1
1
1
1
1
1
1
1
1
1
1
1
1
1
1
1
1
1
1
1
1
1
1
1
1
1
1
1
1
1
1
1
1
1
1
1
1
1
1
1
1
1
1
1
1
1
1
1
1
1
1
1
1
1
1
1
1
1
1
1
1
1
1
1
1
1
1
1
1
1
1
1
1
1
1
1
1
1
1
1
1
1
1
1
1
1
1
1
1
1
1
1
1
1
1
1
1
1
1
1
1
1
1
1
1
1
1
1
1
1
1
1
1
1
1
1
1
1
1
1
1
1
1
1
1
1
1
1
1
1
1
1
1
1
1
1
1
1
1
1
1
1
1
1
1
1
1
1
1
1
1
1
1
1
1
1
1
1
1
1
1
1
1
1
1
1
1
1
1
1
1
1
1
1
1
1
1
1
1
1
1
1
1
1
1
1
1
1
1
1
1
1
1
1
1
1
1
1
1
1
1
1
1
1
1
1
1
1
1
1
1
1
1
1
1
1
1
1
1
1
1
1
1
1
1
1
1
1
1
1
1
1
1
1
1
1
1
1
1
1
1
1
1
1
1
1
1
1
1
1
1
1
1
1
1
1
1
1
1
1
1
1
1
1
1
1
1
1
1
1
1
1
1
1
1
1
1
1
1
1
1
1
1
1
1
1
1
1
1
1
1
1
1
1
1
1
1
1
1
1
1
1
1
1
1
1
1
1
1
1
1
1
1
1
1
1
1
1
1
1
1
1
1
1
1
1
1
1
1
1
1
1
1
1
1
1
1
1
1
1
1
1
1
1
1
1
1
1
1
1
1
1
1
1
1
1
1
1
1
1
1
1
1
1
1
1
1
1
1
1
1
1
1
1
1
1
1
1
1
1
1
1
1
1
1
1
1
1
1
1
1
1
1
1
1
1
1
1
1
1
1
1
1
1
1
1
1
1
1
1
1
1
1
1
1
1
1
1
1
1
1
1
1
1
1
1
1
1
1
1
1
1
1
1
1
1
1
1
1
1
1
1
1
1
1
1
1
1
1
1
1
1
1
1
1
1
1
1
1
1
1
1
1
1
1
1
1
1
1
1
1
1
1
1
1
1
1
1
1
1
1
1
1
1
1
1
1
1
1
1
1
1
1
1
1
1
1
1
1
1
1
1
1
1
1
1
1
1
1
1
1
1
1
1
1
1
1
1
1
1
1
1
1
1
1
1
1
1
1
1
1
1
1
1
1
1
1
1
1
1
1
1
1
1
1
1
1
1
1
1
1
1
1
1
1
1
1
1
1
1
1
1
1
1
1
1
1
1
1
1
1
1
1
1
1
1
1
1
1
1
1
1
1
1
1
1
1
1
1
1
1
1
1
1
1
1
1
1
1
1
1
1
1
1
1
1
1
1
1
1
1
1
1
1
1
1
1
1
1
1
1
1
1
1
1
1
1
1
1
1
1
1
1
1
1
1
1
1
1
1
1
1
1
1
1
1
1
1
1
1
1
1
1
1
1
1
1
1
1
1
1
1
1
1
1
1
1
1
1
1
1
1
1
1
1
1
1
1
1
1
1
1
1
1
1
1
1
1
1
1
1
1
1
1
1
1
1
1
1
1
1
1
1
1
1
1
1
1
1
1
1
1
1
1
1
1
1
1
1
1
1
1
1
1
1
1
1
1
1
1
1
1
1
1
1
1
1
1
1
1
1
1
1
1
1
1
1
1
1
1
1
1
1
1
1
1
1
1
1
1
1
1
1
1
1
1
1
1
1
1
1
1
1
1
1
1
1
1
1
1
1
1
1
1
1
1
1
1
1
1
1
1
1
1
1
1
1
1
1
1
1
1
1
1
1
1
1
1
1
1
1
1
1
1
1
1
1
1
1
1
1
1
1
1
1
1
1
1
1
1
1
1
1
1
1
1
1
1
1
1
1
1
1
1
1
1
1
1
1
1
1
1
1
1
1
1
1
1
1
1
1
1
1
1
1
1
1
1
1
1
1
1
1
1
1
1
1
1
1
1
1
1
1
1
1
1
1
1
1
1
1
1
1
1
1
1
1
1
1
1
1
1
1
1
1
1
1
1
1
1
1
1
1
1
1
1
1
1
1
1
1
1
1
1
1
1
1
1
1
1
1
1
1
1
1
1
1
1
1
1
1
1
1
1
1
1
1
1
1
1
1
1
1
1
1
1
1
1
1
1
1
1
1
1
1
1
1
1
1
1
1
1
1
1
1
1
1
1
1
1
1
1
1
1
1
1
1
1
1
1
1
1
1
1
1
1
1
1
1
1
1
1
1
1
1
1
1
1
1
1
1
1
1
1
1
1
1
1
1
1
1
1
1
1
1
1
1
1
1
1
1
1
1
1
1
1
1
1
1
1
1
1
1
1
1
1
1
1
1
1
1
1
1
1
1
1
1
1
1
1
1
1
1
1
1
1
1
1
1
1
1
1
1
1
1
1
1
1
1
1
1
1
1
1
1
1
1
1
1
1
1
1
1
1
1
1
1
1
1
1
1
1
1
1
1
1
1
1
1
1
1
1
1
1
1
1
1
1
1
1
1
1
1
1
1
1
1
1
1
1
1
1
1
1
1
1
1
1
1
1
1
1
1
1
1
1
1
1
1
1
1
1
1
1
1
1
1
1
1
1
1
1
1
1
1
1
1
1
1
1
1
1
1
1
1
1
1
1
1
1
1
1
1
1
1
1
1
1
1
1
1
1
1
1
1
1
1
1
1
1
1
1
1
1
1
1
1
1
1
1
1
1
1
1
1
1
1
1
1
1
1
1
1
1
1
1
1
1
1
1
1
1
1
1
1
1
1
1
1
1
1
1
1
1
1
1
1
1
1
1
1
1
1
1
1
1
1
1
1
1
1
1
1
1
1
1
1
1
1
1
1
1
1
1
1
1
1
1
1
1
1
1
1
1
1
1
1
1
1
1
1
1
1
1
1
1
1
1
1
1
1
1
1
1
1
1
1
1
1
1
1
1
1
1
1
1
1
1
1
1
1
1
1
1
1
1
1
1
1
1
1
1
1
1
1
1
1
1
1
1
1
1
1
1
1
1
1
1
1
1
1
1
1
1
1
1
1
1
1
1
1
1
1
1
1
1
1
1
1
1
1
1
1
1
1
1
1
1
1
1
1
1
1
1
1
1
1
1
1
1
1
1
1
1
1
1
1
1
1
1
1
1
1
1
1
1
1
1
1
1
1
1
1
1
1
1
1
1
1
1
1
1
1
1
1
1
1
1
1
1
1
1
1
1
1
1
1
1
1
1
1
1
1
1
1
1
1
1
1
1
1
1
1
1
1
1
1
1
1
1
1
1
1
1
1
1
1
1
1
1
1
1
1
1
1
1
1
1
1
1
1
1
1
1
1
1
1
1
1
1
1
1
1
1
1
1
1
1
1
1
1
1
1
1
1
1
1
1
1
1
1
1
1
1
1
1
1
1
1
1
1
1
1
1
1
1
1
1
1
1
1
1
1
1
1
1
1
1
1
1
1
1
1
1
1
1
1
1
1
1
1
1
1
1
1
1
1
1
1
1
1
1
1
1
1
1
1
1
1
1
1
1
1
1
1
1
1
1
1
1
1
1
1
1
1
1
1
1
1
1
1
1
1
1
1
1
1
1
1
1
1
1
1
1
1
1
1
1
1
1
1
1
1
1
1
1
1
1
1
1
1
1
1
1
1
1
1
1
1
1
1
1
1
1
1
1
1
1
1
1
1
1
1
1
1
1
1
1
1
1
1
1
1
1
1
1
1
1
1
1
1
1
1
1
1
1
1
1
1
1
1
1
1
1
1
1
1
1
1
1
1
1
1
1
1
1
1
1
1
1
1
1
1
1
1
1
1
1
1
1
1
1
1
1
1
1
1
1
1.07797
1.17886
1.28877
1.38047
1.4713
1.56074
1.61822
1.6666
1.69594
1.69117
1.66276
1.61345
1.56901
1.53741
1.5265
1.51639
1.5139
1.51673
1.52125
1.52594
1.53078
1.5337
1.53573
1.53704
1.53784
1.53882
1.54031
1.54167
1.54186
1.54168
1.54188
1.54322
1.54543
1.54697
1.54732
1.54728
1.5468
1.5457
1.54486
1.54463
1.54479
1.5451
1.54531
1.54556
1.54573
1.54582
1.54572
1.54556
1.00079
1.00538
1.0227
1.07008
1.12936
1.21396
1.30085
1.37978
1.45195
1.50501
1.53259
1.55304
1.56632
1.56298
1.55464
1.54662
1.5399
1.53674
1.53234
1.53266
1.53429
1.53695
1.53965
1.5423
1.54364
1.54462
1.54483
1.54506
1.5451
1.54489
1.54488
1.54544
1.54633
1.5471
1.54761
1.54758
1.54724
1.54666
1.54642
1.54649
1.54673
1.54716
1.54776
1.54812
1.54815
1.54811
1.54777
1.54807
1
0.999993
1.00001
1.00004
1.00049
1.00449
1.02214
1.07384
1.18439
1.34158
1.50457
1.57846
1.62378
1.62339
1.61547
1.59956
1.57927
1.55555
1.54384
1.54409
1.54583
1.54796
1.55109
1.55459
1.55575
1.55612
1.55639
1.55631
1.55628
1.55629
1.556
1.55556
1.55515
1.55487
1.55453
1.55388
1.55301
1.5522
1.55184
1.55175
1.55187
1.55237
1.55313
1.55356
1.55352
1.55328
1.55279
1.55363
1
1
1
1
1
0.999997
1.00001
1.00003
1.00214
1.0262
1.15043
1.33226
1.50751
1.60011
1.60615
1.6042
1.5963
1.58655
1.57951
1.57315
1.5699
1.56616
1.56392
1.56395
1.56462
1.56602
1.56723
1.56834
1.56936
1.56944
1.56921
1.56866
1.56809
1.5677
1.56707
1.56607
1.56493
1.56381
1.56292
1.56258
1.56257
1.56274
1.56286
1.5627
1.56199
1.56108
1.56
1.56073
1
1
1
1
1
1
1
1
1
0.999971
1.00071
1.01788
1.10675
1.30515
1.45657
1.58324
1.62184
1.61984
1.61399
1.60612
1.59146
1.58183
1.57669
1.57243
1.57133
1.57196
1.57296
1.57451
1.57626
1.57697
1.57713
1.57745
1.57807
1.5782
1.57799
1.57739
1.57647
1.57535
1.57444
1.57421
1.57427
1.57437
1.57422
1.57351
1.57232
1.57111
1.56951
1.5701
1
1
1
1
1
1
1
1
1
0.999999
0.999999
0.999982
1.00024
1.01186
1.08246
1.25192
1.4361
1.54243
1.60979
1.60981
1.60381
1.59619
1.59081
1.5855
1.58134
1.57916
1.57809
1.57782
1.57857
1.58054
1.58199
1.58355
1.58448
1.58444
1.5841
1.58347
1.58264
1.58176
1.58121
1.5811
1.58118
1.5812
1.58075
1.57971
1.57852
1.57746
1.57626
1.5769
1
1
1
1
1
1
1
1
1
1
1
0.999999
0.999999
0.999986
1.00017
1.00608
1.07545
1.21565
1.40586
1.50666
1.57088
1.59648
1.5966
1.59536
1.59022
1.58628
1.58302
1.57993
1.57948
1.58018
1.58213
1.58516
1.58644
1.58621
1.58571
1.58504
1.58435
1.58372
1.58352
1.58341
1.58361
1.58372
1.58337
1.58265
1.58193
1.58155
1.581
1.58143
1
1
1
1
1
1
1
1
1
1
1
1
1
0.999999
0.999999
0.99999
1.00022
1.00452
1.05215
1.19823
1.36132
1.49898
1.54104
1.56468
1.57777
1.58039
1.57986
1.57673
1.57693
1.57811
1.57944
1.58089
1.58243
1.58367
1.58361
1.58308
1.58275
1.58277
1.58303
1.58382
1.58449
1.58454
1.58431
1.58387
1.58355
1.58343
1.58326
1.58329
1
1
1
1
1
1
1
1
1
1
1
1
1
1
1
0.999999
0.999999
0.999993
1.00011
1.00477
1.03885
1.18035
1.34089
1.47949
1.53831
1.55279
1.56465
1.56622
1.56871
1.57065
1.57088
1.57183
1.57342
1.57524
1.57686
1.57807
1.5791
1.58019
1.58116
1.58218
1.58285
1.58303
1.58312
1.58321
1.58316
1.58298
1.58297
1.5829
1
1
1
1
1
1
1
1
1
1
1
1
1
1
1
1
1
1
0.999999
0.999995
1.00007
1.00447
1.04015
1.15547
1.32955
1.45489
1.53416
1.55471
1.56004
1.56416
1.56434
1.56422
1.56523
1.56679
1.56856
1.5705
1.5726
1.57459
1.5762
1.57762
1.57839
1.57876
1.57937
1.58013
1.58048
1.58063
1.58105
1.58094
1
1
1
1
1
1
1
1
1
1
1
1
1
1
1
1
1
1
1
1
1
0.999995
1.00011
1.00302
1.04391
1.15025
1.3223
1.44222
1.52168
1.55424
1.56177
1.56217
1.56411
1.56471
1.56503
1.56623
1.56796
1.56944
1.57101
1.57257
1.5734
1.57382
1.57438
1.57497
1.57532
1.5756
1.57638
1.57637
1
1
1
1
1
1
1
1
1
1
1
1
1
1
1
1
1
1
1
1
1
0.999999
1
0.999995
1.0002
1.00314
1.03965
1.16522
1.32596
1.44872
1.50728
1.54065
1.55338
1.55757
1.55991
1.56336
1.56398
1.56433
1.56523
1.56672
1.56819
1.56907
1.56961
1.57006
1.57027
1.57057
1.57159
1.57192
1
1
1
1
1
1
1
1
1
1
1
1
1
1
1
1
1
1
1
1
1
1
1
0.999999
1
0.999996
1.00021
1.00509
1.0404
1.17936
1.33456
1.47235
1.51236
1.53001
1.54299
1.5536
1.55424
1.55525
1.55703
1.55954
1.5619
1.5633
1.56361
1.56373
1.56394
1.56461
1.5661
1.56704
1
1
1
1
1
1
1
1
1
1
1
1
1
1
1
1
1
1
1
1
1
1
1
1
1
1
1
0.999998
1.00023
1.0079
1.05121
1.19979
1.36238
1.48558
1.53667
1.54283
1.54617
1.54806
1.55001
1.55296
1.55534
1.55659
1.55762
1.55809
1.5585
1.55944
1.5609
1.56219
1
1
1
1
1
1
1
1
1
1
1
1
1
1
1
1
1
1
1
1
1
1
1
1
1
1
1
1
0.999999
1.00001
1.00042
1.01112
1.07756
1.23664
1.39924
1.49942
1.54754
1.55404
1.55398
1.55603
1.55656
1.55643
1.55645
1.55668
1.55672
1.55739
1.55858
1.55969
1
1
1
1
1
1
1
1
1
1
1
1
1
1
1
1
1
1
1
1
1
1
1
1
1
1
1
1
1
1
0.999999
1.00003
1.00111
1.01872
1.12241
1.29074
1.43805
1.50887
1.5433
1.5535
1.55453
1.5576
1.55827
1.55781
1.55757
1.55781
1.55846
1.55917
1
1
1
1
1
1
1
1
1
1
1
1
1
1
1
1
1
1
1
1
1
1
1
1
1
1
1
1
1
1
1
1
0.999999
1.0001
1.00343
1.0355
1.17942
1.35987
1.49084
1.52069
1.53602
1.54961
1.55189
1.55286
1.55399
1.55546
1.55718
1.558
1
1
1
1
1
1
1
1
1
1
1
1
1
1
1
1
1
1
1
1
1
1
1
1
1
1
1
1
1
1
1
1
1
1
1
1.00036
1.01058
1.07557
1.2581
1.42522
1.52876
1.54431
1.54756
1.54892
1.55005
1.55248
1.55545
1.55618
1
1
1
1
1
1
1
1
1
1
1
1
1
1
1
1
1
1
1
1
1
1
1
1
1
1
1
1
1
1
1
1
1
1
1
0.999999
1.00003
1.00156
1.03037
1.14846
1.35479
1.48442
1.54813
1.5582
1.55742
1.55802
1.55901
1.55851
1
1
1
1
1
1
1
1
1
1
1
1
1
1
1
1
1
1
1
1
1
1
1
1
1
1
1
1
1
1
1
1
1
1
1
1
1
1
1.00032
1.00727
1.08687
1.26292
1.44137
1.51176
1.5463
1.55897
1.55869
1.55898
1
1
1
1
1
1
1
1
1
1
1
1
1
1
1
1
1
1
1
1
1
1
1
1
1
1
1
1
1
1
1
1
1
1
1
1
1
1
1
1.00003
1.00246
1.03144
1.18374
1.38787
1.5144
1.53517
1.54416
1.54954
1
1
1
1
1
1
1
1
1
1
1
1
1
1
1
1
1
1
1
1
1
1
1
1
1
1
1
1
1
1
1
1
1
1
1
1
1
1
1
1
1
1.00046
1.01432
1.11109
1.32086
1.48313
1.5468
1.55236
1
1
1
1
1
1
1
1
1
1
1
1
1
1
1
1
1
1
1
1
1
1
1
1
1
1
1
1
1
1
1
1
1
1
1
1
1
1
1
1
1
1
1.00011
1.0051
1.0665
1.25273
1.43245
1.53343
1
1
1
1
1
1
1
1
1
1
1
1
1
1
1
1
1
1
1
1
1
1
1
1
1
1
1
1
1
1
1
1
1
1
1
1
1
1
1
1
1
1
1
1.00003
1.00178
1.03398
1.20481
1.41323
1
1
1
1
1
1
1
1
1
1
1
1
1
1
1
1
1
1
1
1
1
1
1
1
1
1
1
1
1
1
1
1
1
1
1
1
1
1
1
1
1
1
1
1
1
1.00073
1.02358
1.13444
1
1
1
1
1
1
1
1
1
1
1
1
1
1
1
1
1
1
1
1
1
1
1
1
1
1
1
1
1
1
1
1
1
1
1
1
1
1
1
1
1
1
1
1
1
1
1.00042
1.00531
1
1
1
1
1
1
1
1
1
1
1
1
1
1
1
1
1
1
1
1
1
1
1
1
1
1
1
1
1
1
1
1
1
1
1
1
1
1
1
1
1
1
1
1
1
1
1
0.999944
1
1
1
1
1
1
1
1
1
1
1
1
1
1
1
1
1
1
1
1
1
1
1
1
1
1
1
1
1
1
1
1
1
1
1
1
1
1
1
1
1
1
1
1
1
1
1
0.999981
1
1
1
1
1
1
1
1
1
1
1
1
1
1
1
1
1
1
1
1
1
1
1
1
1
1
1
1
1
1
1
1
1
1
1
1
1
1
1
1
1
1
1
1
1
1
1
0.999997
1
1
1
1
1
1
1
1
1
1
1
1
1
1
1
1
1
1
1
1
1
1
1
1
1
1
1
1
1
1
1
1
1
1
1
1
1
1
1
1
1
1
1
1
1
1
1
1
1
1
1
1
1
1
1
1
1
1
1
1
1
1
1
1
1
1
1
1
1
1
1
1
1
1
1
1
1
1
1
1
1
1
1
1
1
1
1
1
1
1
1
1
1
1
1
1
1
1
1
1
1
1
1
1
1
1
1
1
1
1
1
1
1
1
1
1
1
1
1
1
1
1
1
1
1
1
1
1
1
1
1
1
1
1
1
1
1
1
1
1
1
1
1
1
1
1
1
1
1
1
1
1
1
1
1
1
1
1
1
1
1
1
1
1
1
1
1
1
1
1
1
1
1
1
1
1
1
1
1
1
1
1
1
1
1
1
1
1
1
1
1
1
1
1
1
1
1
1
1
1
1
1
1
1
1
1
1
1
1
1
1
1
1
1
1
1
1
1
1
1
1
1
1
1
1
1
1
1
1
1
1
1
1
1
1
1
1
1
1
1
1
1
1
1
1
1
1
1
1
1
1
1
1
1
1
1
1
1
1
1
1
1
1
1
1
1
1
1
1
1
1
1
1
1
1
1
1
1
1
1
1
1
1
1
1
1
1
1
1
1
1
1
1
1
1
1
1
1
1
1
1
1
1
1
1
1
1
1
1
1
1
1
1
1
1
1
1
1
1
1
1
1
1
1
1
1
1
1
1
1
1
1
1
1
1
0.999997
1
1
1
1
1
1
1
1
1
1
1
1
1
1
1
1
1
1
1
1
1
1
1
1
1
1
1
1
1
1
1
1
1
1
1
1
1
1
1
1
1
1
1
1
1
1
1
0.999981
1
1
1
1
1
1
1
1
1
1
1
1
1
1
1
1
1
1
1
1
1
1
1
1
1
1
1
1
1
1
1
1
1
1
1
1
1
1
1
1
1
1
1
1
1
1
1
0.999943
1
1
1
1
1
1
1
1
1
1
1
1
1
1
1
1
1
1
1
1
1
1
1
1
1
1
1
1
1
1
1
1
1
1
1
1
1
1
1
1
1
1
1
1
1
1
1.00042
1.00537
1
1
1
1
1
1
1
1
1
1
1
1
1
1
1
1
1
1
1
1
1
1
1
1
1
1
1
1
1
1
1
1
1
1
1
1
1
1
1
1
1
1
1
1
1
1.00073
1.02355
1.13515
1
1
1
1
1
1
1
1
1
1
1
1
1
1
1
1
1
1
1
1
1
1
1
1
1
1
1
1
1
1
1
1
1
1
1
1
1
1
1
1
1
1
1
1.00003
1.00178
1.03389
1.20488
1.41402
1
1
1
1
1
1
1
1
1
1
1
1
1
1
1
1
1
1
1
1
1
1
1
1
1
1
1
1
1
1
1
1
1
1
1
1
1
1
1
1
1
1
1.00011
1.0051
1.06653
1.25246
1.43289
1.53336
1
1
1
1
1
1
1
1
1
1
1
1
1
1
1
1
1
1
1
1
1
1
1
1
1
1
1
1
1
1
1
1
1
1
1
1
1
1
1
1
1
1.00046
1.01432
1.1111
1.32079
1.48309
1.54706
1.55236
1
1
1
1
1
1
1
1
1
1
1
1
1
1
1
1
1
1
1
1
1
1
1
1
1
1
1
1
1
1
1
1
1
1
1
1
1
1
1
1.00003
1.00246
1.03144
1.18375
1.38784
1.51437
1.53523
1.54418
1.54951
1
1
1
1
1
1
1
1
1
1
1
1
1
1
1
1
1
1
1
1
1
1
1
1
1
1
1
1
1
1
1
1
1
1
1
1
1
1
1.00032
1.00727
1.08687
1.26291
1.44142
1.51172
1.54629
1.559
1.55868
1.55895
1
1
1
1
1
1
1
1
1
1
1
1
1
1
1
1
1
1
1
1
1
1
1
1
1
1
1
1
1
1
1
1
1
1
1
0.999999
1.00003
1.00156
1.03037
1.14846
1.35479
1.48442
1.54814
1.5582
1.55742
1.55803
1.55901
1.5585
1
1
1
1
1
1
1
1
1
1
1
1
1
1
1
1
1
1
1
1
1
1
1
1
1
1
1
1
1
1
1
1
1
1
1
1.00036
1.01059
1.07557
1.2581
1.42522
1.52876
1.54431
1.54756
1.54892
1.55005
1.55248
1.55545
1.55618
1
1
1
1
1
1
1
1
1
1
1
1
1
1
1
1
1
1
1
1
1
1
1
1
1
1
1
1
1
1
1
1
0.999999
1.0001
1.00343
1.0355
1.17942
1.35987
1.49084
1.52069
1.53602
1.54961
1.55189
1.55286
1.55399
1.55545
1.55718
1.558
1
1
1
1
1
1
1
1
1
1
1
1
1
1
1
1
1
1
1
1
1
1
1
1
1
1
1
1
1
1
0.999999
1.00003
1.00111
1.01872
1.12241
1.29074
1.43805
1.50887
1.5433
1.5535
1.55453
1.5576
1.55827
1.55781
1.55757
1.55781
1.55846
1.55917
1
1
1
1
1
1
1
1
1
1
1
1
1
1
1
1
1
1
1
1
1
1
1
1
1
1
1
1
0.999999
1.00001
1.00042
1.01112
1.07756
1.23664
1.39924
1.49942
1.54754
1.55404
1.55398
1.55603
1.55656
1.55643
1.55645
1.55668
1.55672
1.55739
1.55858
1.55969
1
1
1
1
1
1
1
1
1
1
1
1
1
1
1
1
1
1
1
1
1
1
1
1
1
1
1
0.999998
1.00023
1.0079
1.05121
1.19979
1.36238
1.48558
1.53667
1.54284
1.54617
1.54806
1.55001
1.55296
1.55534
1.55659
1.55762
1.55809
1.5585
1.55944
1.5609
1.56219
1
1
1
1
1
1
1
1
1
1
1
1
1
1
1
1
1
1
1
1
1
1
1
0.999999
1
0.999996
1.00021
1.00509
1.0404
1.17936
1.33456
1.47235
1.51236
1.53001
1.54299
1.5536
1.55424
1.55525
1.55703
1.55954
1.5619
1.5633
1.56361
1.56373
1.56395
1.56461
1.5661
1.56704
1
1
1
1
1
1
1
1
1
1
1
1
1
1
1
1
1
1
1
1
1
0.999999
1
0.999995
1.0002
1.00314
1.03965
1.16522
1.32596
1.44872
1.50728
1.54065
1.55338
1.55757
1.55991
1.56336
1.56398
1.56433
1.56523
1.56672
1.56819
1.56907
1.56961
1.57006
1.57027
1.57057
1.57159
1.57192
1
1
1
1
1
1
1
1
1
1
1
1
1
1
1
1
1
1
1
1
1
0.999995
1.00011
1.00302
1.04391
1.15025
1.32229
1.44221
1.52168
1.55424
1.56177
1.56217
1.56411
1.56471
1.56503
1.56623
1.56796
1.56944
1.57101
1.57257
1.5734
1.57382
1.57438
1.57497
1.57532
1.5756
1.57638
1.57637
1
1
1
1
1
1
1
1
1
1
1
1
1
1
1
1
1
1
0.999999
0.999995
1.00007
1.00447
1.04015
1.15547
1.32955
1.45489
1.53416
1.55471
1.56004
1.56416
1.56434
1.56422
1.56523
1.56679
1.56856
1.5705
1.5726
1.57459
1.5762
1.57762
1.57839
1.57876
1.57937
1.58013
1.58048
1.58063
1.58105
1.58094
1
1
1
1
1
1
1
1
1
1
1
1
1
1
1
0.999999
0.999999
0.999993
1.00011
1.00477
1.03885
1.18035
1.34089
1.47949
1.53831
1.55279
1.56465
1.56622
1.56871
1.57065
1.57088
1.57183
1.57342
1.57524
1.57686
1.57807
1.5791
1.58019
1.58116
1.58218
1.58285
1.58303
1.58312
1.58321
1.58316
1.58298
1.58297
1.5829
1
1
1
1
1
1
1
1
1
1
1
1
1
0.999999
0.999999
0.99999
1.00022
1.00452
1.05215
1.19823
1.36132
1.49898
1.54104
1.56468
1.57777
1.58039
1.57986
1.57673
1.57693
1.57811
1.57944
1.58089
1.58243
1.58367
1.58361
1.58308
1.58275
1.58277
1.58303
1.58382
1.58449
1.58454
1.58431
1.58387
1.58355
1.58343
1.58326
1.58329
1
1
1
1
1
1
1
1
1
1
1
0.999999
0.999999
0.999986
1.00017
1.00608
1.07545
1.21565
1.40586
1.50666
1.57088
1.59648
1.5966
1.59536
1.59022
1.58628
1.58302
1.57993
1.57948
1.58018
1.58213
1.58516
1.58644
1.58621
1.58571
1.58504
1.58435
1.58372
1.58352
1.58341
1.58361
1.58372
1.58337
1.58265
1.58193
1.58155
1.581
1.58143
1
1
1
1
1
1
1
1
1
0.999999
0.999999
0.999982
1.00024
1.01186
1.08246
1.25192
1.4361
1.54243
1.60979
1.60981
1.60381
1.59619
1.59081
1.5855
1.58134
1.57916
1.57809
1.57782
1.57857
1.58054
1.58199
1.58355
1.58448
1.58444
1.5841
1.58347
1.58264
1.58176
1.58121
1.5811
1.58118
1.5812
1.58075
1.57971
1.57852
1.57746
1.57626
1.5769
1
1
1
1
1
1
1
1
1
0.999971
1.00071
1.01788
1.10675
1.30515
1.45657
1.58324
1.62184
1.61984
1.61399
1.60612
1.59146
1.58183
1.57669
1.57243
1.57133
1.57196
1.57296
1.57451
1.57626
1.57697
1.57713
1.57745
1.57807
1.5782
1.57799
1.57739
1.57647
1.57535
1.57444
1.57421
1.57427
1.57437
1.57422
1.57351
1.57232
1.57111
1.56951
1.5701
1
1
1
1
1
0.999997
1.00001
1.00003
1.00214
1.0262
1.15043
1.33226
1.50751
1.60011
1.60615
1.6042
1.5963
1.58655
1.57951
1.57315
1.5699
1.56616
1.56392
1.56395
1.56462
1.56602
1.56723
1.56834
1.56936
1.56944
1.56921
1.56866
1.56809
1.5677
1.56707
1.56607
1.56493
1.56381
1.56292
1.56258
1.56257
1.56274
1.56286
1.5627
1.56199
1.56108
1.56
1.56073
1
0.999993
1.00001
1.00004
1.00049
1.00449
1.02214
1.07384
1.18439
1.34158
1.50457
1.57846
1.62378
1.62339
1.61547
1.59956
1.57927
1.55555
1.54384
1.54409
1.54583
1.54796
1.55109
1.55459
1.55575
1.55612
1.55639
1.55631
1.55628
1.55629
1.556
1.55556
1.55515
1.55487
1.55453
1.55388
1.55301
1.5522
1.55184
1.55175
1.55187
1.55237
1.55313
1.55356
1.55352
1.55328
1.55279
1.55363
1.00079
1.00538
1.0227
1.07008
1.12936
1.21396
1.30085
1.37978
1.45195
1.50501
1.53259
1.55304
1.56632
1.56298
1.55464
1.54662
1.5399
1.53674
1.53234
1.53266
1.53429
1.53695
1.53965
1.5423
1.54364
1.54462
1.54483
1.54506
1.5451
1.54489
1.54488
1.54544
1.54633
1.5471
1.54761
1.54758
1.54724
1.54666
1.54642
1.54649
1.54673
1.54716
1.54776
1.54812
1.54815
1.54811
1.54777
1.54807
1.07797
1.17886
1.28877
1.38047
1.4713
1.56074
1.61822
1.6666
1.69594
1.69117
1.66276
1.61345
1.56901
1.53741
1.5265
1.51639
1.5139
1.51673
1.52125
1.52594
1.53078
1.5337
1.53573
1.53704
1.53784
1.53882
1.54031
1.54167
1.54186
1.54168
1.54188
1.54322
1.54543
1.54697
1.54732
1.54728
1.5468
1.5457
1.54486
1.54463
1.54479
1.5451
1.54531
1.54556
1.54573
1.54582
1.54572
1.54556
1.40077
1.24324
1.1179
0.991388
0.979928
1.00747
1.00969
1.01683
1.04911
1.08521
1.08798
1.08677
1.09296
1.10701
1.1135
1.11632
1.12255
1.12282
1.12039
1.11756
1.11768
1.11755
1.11504
1.11299
1.11337
1.11317
1.11183
1.10847
1.10528
1.10479
1.10454
1.10416
1.1044
1.10479
1.10487
1.10485
1.10439
1.1035
1.10345
1.10371
1.10442
1.10467
1.10462
1.10442
1.10397
1.10329
1.10218
1.10223
1.1045
1.15505
1.34272
1.58465
1.81026
2.03928
2.2371
2.24312
2.18555
2.10864
2.08104
2.07345
2.06544
2.05589
2.04776
2.03826
2.02778
2.01175
1.9878
1.9732
1.9659
1.9597
1.95193
1.94204
1.9264
1.90367
1.88458
1.87594
1.87146
1.86992
1.86699
1.86094
1.85141
1.8336
1.8115
1.79724
1.78979
1.78494
1.78098
1.77632
1.7698
1.75691
1.74092
1.73179
1.72549
1.71965
1.71363
1.7061
1.69376
1.67432
1.66038
1.65496
1.65085
1.6474
1.64573
1.64296
1.63911
1.63271
1.61652
1.59441
1.58317
1.57866
1.57541
1.57252
1.57067
1.56828
1.56501
1.56093
1.55186
1.53748
1.52699
1.52083
1.51577
1.51059
1.50374
1.49474
1.48763
1.48361
1.48061
1.478
1.47548
1.47254
1.46798
1.45818
1.44208
1.43335
1.43049
1.42745
1.42386
1.42099
1.41838
1.41563
1.41143
1.40385
1.39533
1.39106
1.394
1.41495
1.47391
1.57963
1.69746
1.78267
1.85932
1.91136
1.925
1.91837
1.89868
1.87141
1.85799
1.8551
1.85325
1.85043
1.84622
1.84211
1.83598
1.82279
1.81184
1.80787
1.80481
1.80485
1.80648
1.8039
1.8007
1.79498
1.78154
1.76895
1.76538
1.76321
1.76093
1.75934
1.75563
1.75103
1.74666
1.74044
1.73188
1.72635
1.72335
1.72029
1.7164
1.71147
1.70547
1.69867
1.69278
1.68458
1.5003
1.41444
1.34046
1.24723
1.16595
1.13954
1.10738
1.07606
1.08038
1.07619
1.05681
1.0537
1.05779
1.06679
1.07579
1.08071
1.08896
1.09392
1.0931
1.09355
1.09596
1.10109
1.10373
1.10554
1.10589
1.10568
1.10407
1.1011
1.10002
1.10015
1.09998
1.09984
1.10032
1.1009
1.10116
1.10114
1.10059
1.09975
1.09941
1.09941
1.09958
1.09973
1.09977
1.09971
1.09936
1.0981
1.09839
1.10261
1.1486
1.3484
1.52953
1.57648
1.66389
1.76799
1.95129
2.0838
2.13763
2.12804
2.10894
2.08384
2.06805
2.06036
2.05385
2.04464
2.03253
2.01827
1.99851
1.97741
1.96597
1.95886
1.95159
1.94263
1.931
1.91553
1.89854
1.8837
1.87455
1.86914
1.86337
1.85612
1.84673
1.83449
1.82009
1.80793
1.7982
1.78948
1.78214
1.77625
1.76866
1.75662
1.74135
1.73351
1.72911
1.72369
1.71717
1.70952
1.69813
1.68039
1.66538
1.65879
1.65477
1.65104
1.64681
1.6425
1.63807
1.63129
1.61801
1.59991
1.58793
1.58213
1.57853
1.57562
1.57269
1.56927
1.56552
1.56058
1.55271
1.54155
1.53269
1.52654
1.5208
1.51452
1.50734
1.49931
1.49269
1.48869
1.48554
1.48242
1.47903
1.47511
1.46994
1.46126
1.44751
1.4355
1.43084
1.4289
1.42746
1.42464
1.42156
1.41858
1.41462
1.40785
1.40374
1.40886
1.43432
1.49437
1.56203
1.61361
1.66052
1.72013
1.77182
1.82296
1.85282
1.87643
1.88078
1.87437
1.86598
1.86128
1.85776
1.8545
1.8506
1.84608
1.83904
1.82659
1.81481
1.81045
1.80767
1.80587
1.8049
1.80276
1.79971
1.79501
1.78541
1.77389
1.76838
1.76593
1.76346
1.76114
1.75724
1.75262
1.74816
1.74261
1.73515
1.72872
1.72448
1.72114
1.71784
1.71351
1.70781
1.7013
1.69554
1.68704
1.53885
1.49651
1.4343
1.36334
1.28313
1.22837
1.18149
1.12118
1.08976
1.07522
1.05151
1.04129
1.0439
1.04944
1.05049
1.05166
1.05658
1.06293
1.0654
1.06748
1.07255
1.08017
1.08468
1.08666
1.08802
1.0887
1.08864
1.08851
1.08864
1.08915
1.08949
1.09029
1.09102
1.09103
1.09099
1.09058
1.08977
1.08944
1.0893
1.08936
1.08969
1.09018
1.09032
1.0902
1.08973
1.09091
1.10274
1.16333
1.34559
1.54958
1.60284
1.59633
1.59772
1.6134
1.69832
1.90183
2.10807
2.16661
2.14804
2.10313
2.06921
2.06199
2.05599
2.04627
2.03398
2.02444
2.01284
1.99281
1.97158
1.95939
1.95021
1.94203
1.93413
1.92641
1.91646
1.90298
1.88668
1.87233
1.86153
1.85084
1.83953
1.83034
1.82542
1.82008
1.81183
1.80146
1.79076
1.77802
1.76492
1.75302
1.74393
1.73703
1.72959
1.72154
1.71341
1.70542
1.69596
1.68308
1.67051
1.6649
1.6618
1.65735
1.65182
1.64557
1.63745
1.6264
1.61345
1.60309
1.5965
1.59035
1.58446
1.5792
1.57407
1.56908
1.56392
1.55667
1.54623
1.53687
1.53049
1.52502
1.51876
1.51142
1.504
1.49675
1.48981
1.4848
1.48188
1.47895
1.47529
1.47039
1.46386
1.45496
1.44559
1.43858
1.43418
1.42989
1.42446
1.42003
1.41705
1.41403
1.41123
1.41167
1.42211
1.4648
1.53643
1.5986
1.6306
1.63252
1.63608
1.65104
1.68448
1.73625
1.79592
1.84977
1.8738
1.87837
1.8754
1.8704
1.86222
1.85745
1.85411
1.84829
1.83988
1.83054
1.82221
1.81639
1.81207
1.80789
1.80388
1.80042
1.79711
1.79277
1.78739
1.78184
1.7756
1.76823
1.76284
1.75885
1.75453
1.75001
1.74566
1.7414
1.73752
1.73365
1.72939
1.72426
1.71857
1.71262
1.70653
1.70037
1.69538
1.68794
1.55602
1.53772
1.49799
1.44409
1.37604
1.31785
1.26728
1.20605
1.16196
1.14059
1.11057
1.07553
1.07283
1.06587
1.05209
1.04809
1.04824
1.04557
1.04462
1.04579
1.051
1.06134
1.06774
1.07015
1.07218
1.07427
1.0756
1.07668
1.07766
1.07916
1.08139
1.08327
1.08357
1.08345
1.083
1.08209
1.08175
1.08189
1.08231
1.08237
1.08228
1.08234
1.08191
1.08143
1.08271
1.10505
1.22249
1.37104
1.53675
1.61644
1.6228
1.61621
1.60617
1.59991
1.6006
1.64901
1.84309
2.08401
2.13229
2.11177
2.09199
2.07657
2.06197
2.0504
2.04174
2.03493
2.02619
2.01032
1.98359
1.96214
1.95207
1.94565
1.94333
1.93947
1.93216
1.92072
1.90057
1.87527
1.85884
1.84896
1.84148
1.83593
1.83212
1.82887
1.82383
1.81407
1.79648
1.77724
1.76269
1.75364
1.74809
1.74229
1.73467
1.7264
1.71731
1.70739
1.69914
1.69212
1.68352
1.67362
1.66309
1.65616
1.65098
1.64478
1.6351
1.62357
1.61594
1.61202
1.60649
1.59938
1.59129
1.58383
1.57813
1.57237
1.56433
1.55498
1.54622
1.53895
1.53362
1.52851
1.52233
1.51461
1.50688
1.50054
1.49346
1.48556
1.4814
1.47912
1.47681
1.47291
1.46386
1.45162
1.44547
1.44303
1.43975
1.4338
1.42623
1.42049
1.41978
1.41804
1.42044
1.44385
1.50601
1.58271
1.63182
1.64795
1.6543
1.65145
1.64603
1.64539
1.64843
1.66227
1.6969
1.75605
1.81501
1.856
1.86764
1.86917
1.87169
1.86979
1.86256
1.8531
1.84562
1.83909
1.83176
1.82471
1.81857
1.81267
1.80656
1.8013
1.79732
1.79399
1.79178
1.78886
1.78359
1.77535
1.76743
1.76148
1.75633
1.75124
1.74678
1.74385
1.74227
1.74011
1.73617
1.7303
1.72283
1.71525
1.70828
1.70231
1.69774
1.69087
1.56637
1.55982
1.53921
1.50306
1.4474
1.39299
1.34516
1.28148
1.234
1.206
1.17419
1.1295
1.11028
1.09331
1.06935
1.05194
1.05108
1.04639
1.04328
1.04469
1.04933
1.05368
1.05703
1.0586
1.05997
1.06273
1.06524
1.06809
1.07083
1.07319
1.07662
1.07847
1.07874
1.07854
1.07798
1.07799
1.07865
1.07984
1.08068
1.08068
1.08046
1.07982
1.07827
1.07847
1.09841
1.259
1.45444
1.54923
1.60962
1.63046
1.62906
1.62611
1.61789
1.60956
1.59824
1.59308
1.6174
1.77369
1.99044
2.11845
2.11602
2.09488
2.06707
2.05426
2.04927
2.04375
2.03252
2.01745
1.9943
1.96993
1.9573
1.94989
1.94605
1.94235
1.93525
1.92659
1.90903
1.88048
1.86112
1.85337
1.84763
1.84361
1.83979
1.83363
1.82565
1.81364
1.79455
1.77694
1.76648
1.75925
1.75151
1.74267
1.73463
1.72744
1.71931
1.71049
1.7025
1.69561
1.68906
1.68012
1.669
1.65954
1.6517
1.64348
1.63444
1.62567
1.61803
1.61155
1.60757
1.60462
1.60069
1.59405
1.58434
1.57216
1.56017
1.55268
1.54877
1.54546
1.54115
1.53596
1.52976
1.52235
1.51345
1.50389
1.4951
1.4884
1.48391
1.48
1.47591
1.47064
1.46216
1.45345
1.4502
1.4473
1.44331
1.43774
1.43131
1.4271
1.42487
1.43301
1.47053
1.54153
1.61313
1.65604
1.67794
1.67909
1.67538
1.6664
1.65506
1.6462
1.6413
1.64171
1.64615
1.66598
1.71734
1.78125
1.83875
1.86722
1.87977
1.87652
1.8666
1.856
1.84925
1.84383
1.83724
1.83045
1.82516
1.81928
1.81115
1.80442
1.80018
1.79618
1.79213
1.78952
1.78728
1.78295
1.77454
1.76594
1.75983
1.75497
1.75086
1.74739
1.74422
1.741
1.73701
1.73141
1.72369
1.71586
1.71018
1.70554
1.70173
1.6959
1.57443
1.57031
1.56168
1.54205
1.50407
1.45546
1.41012
1.35648
1.3071
1.27275
1.23569
1.1914
1.16691
1.1469
1.11768
1.09141
1.08571
1.07535
1.06131
1.06032
1.06069
1.05807
1.05416
1.05252
1.05151
1.05219
1.05521
1.05992
1.06606
1.07119
1.07505
1.07727
1.07772
1.07751
1.0772
1.07741
1.07849
1.07997
1.08085
1.08094
1.08069
1.07944
1.08056
1.10317
1.25468
1.49475
1.58536
1.61764
1.6352
1.62885
1.62574
1.62809
1.62554
1.61383
1.59972
1.58794
1.5844
1.59527
1.68866
1.90194
2.06849
2.07681
2.07244
2.06325
2.05701
2.0473
2.03444
2.02043
2.00152
1.98004
1.96303
1.95261
1.94572
1.94208
1.93641
1.92807
1.91404
1.88866
1.86768
1.85947
1.85407
1.84931
1.84369
1.83702
1.82753
1.81147
1.79149
1.7798
1.77281
1.76553
1.7575
1.74923
1.74022
1.72978
1.71964
1.71194
1.70631
1.70131
1.69534
1.687
1.67559
1.66182
1.65022
1.64174
1.63467
1.6278
1.62155
1.61732
1.61373
1.60814
1.60091
1.59332
1.58218
1.56915
1.5603
1.5544
1.54876
1.54303
1.53772
1.53218
1.52641
1.52051
1.51421
1.50692
1.50014
1.49458
1.48864
1.4811
1.4723
1.46574
1.46238
1.4603
1.45775
1.45421
1.45028
1.44616
1.44023
1.43826
1.45063
1.50385
1.5792
1.63911
1.67883
1.69008
1.69132
1.68899
1.68061
1.66795
1.6582
1.65038
1.6451
1.64285
1.64193
1.64261
1.65209
1.68443
1.74504
1.80941
1.85551
1.86415
1.86362
1.86102
1.85646
1.85104
1.84391
1.83666
1.83039
1.82322
1.81356
1.80642
1.80239
1.79857
1.79479
1.79191
1.78903
1.78561
1.78037
1.77193
1.76421
1.75903
1.75491
1.75143
1.74856
1.74562
1.74045
1.73119
1.72164
1.71635
1.71259
1.70866
1.70594
1.70136
1.58026
1.57745
1.57402
1.56507
1.54224
1.5081
1.46722
1.41547
1.37337
1.33592
1.29545
1.25221
1.224
1.19781
1.16523
1.1384
1.12589
1.1117
1.08636
1.07723
1.07364
1.06616
1.05975
1.05819
1.05589
1.0552
1.05593
1.05831
1.06352
1.06867
1.07138
1.07343
1.0749
1.07606
1.07732
1.0786
1.0804
1.08176
1.08238
1.08257
1.0822
1.08683
1.13481
1.27908
1.521
1.61249
1.63107
1.63613
1.63889
1.63244
1.62311
1.62156
1.62223
1.61788
1.59926
1.583
1.57619
1.57136
1.57437
1.62222
1.79293
1.97249
2.04985
2.06242
2.05255
2.03776
2.02689
2.01643
2.00398
1.98741
1.96863