/*--------------------------------*- C++ -*----------------------------------*\
  =========                 |
  \\      /  F ield         | OpenFOAM: The Open Source CFD Toolbox
   \\    /   O peration     | Website:  https://openfoam.org
    \\  /    A nd           | Version:  7
     \\/     M anipulation  |
\*---------------------------------------------------------------------------*/
FoamFile
{
    version     2.0;
    format      ascii;
    class       volVectorField;
    location    "2.3";
    object      U;
}
// * * * * * * * * * * * * * * * * * * * * * * * * * * * * * * * * * * * * * //

dimensions      [0 1 -1 0 0 0 0];

internalField   nonuniform List<vector> 
18432
(
(3 8.33299e-17 0)
(3 -1.33504e-16 0)
(3 -4.05165e-17 0)
(3 -1.42202e-16 0)
(3 -2.3159e-16 0)
(3 -3.73242e-16 0)
(3 -6.84327e-16 0)
(3 -7.47654e-16 0)
(3 -2.86603e-16 0)
(3 8.36173e-16 0)
(3 1.42584e-15 0)
(3 6.04666e-16 0)
(3 4.43646e-16 0)
(3 1.2588e-16 0)
(3 -4.36613e-16 0)
(3 -7.94681e-16 0)
(3 6.07864e-17 0)
(3 6.09762e-16 0)
(3 6.48792e-16 0)
(3 8.45775e-17 0)
(3 -5.70562e-16 0)
(3 -8.06122e-16 0)
(3 -6.07505e-16 0)
(3 -4.68946e-16 0)
(3 -5.02815e-16 0)
(3 -5.36723e-16 0)
(3 -2.26113e-16 0)
(3 -2.18513e-16 0)
(3 -3.65768e-16 0)
(3 -5.86739e-16 0)
(3 -1.20129e-15 0)
(3 3.56786e-17 0)
(3 1.03888e-15 0)
(3 1.53771e-15 0)
(3 9.26779e-16 0)
(3 1.44671e-15 0)
(3 1.8313e-15 0)
(3 1.56535e-15 0)
(3 6.63948e-16 0)
(3 3.02724e-16 0)
(3 8.0523e-16 0)
(3 1.63471e-15 0)
(3 2.08666e-15 0)
(3 2.22959e-15 0)
(3 1.54988e-15 0)
(3 3.50028e-16 0)
(3 1.98717e-16 0)
(3 -5.86945e-17 0)
(3 -9.85464e-17 0)
(3 -9.22765e-17 0)
(3 1.15031e-16 0)
(3 1.34581e-16 0)
(3 -8.20794e-17 0)
(3 -1.91337e-16 0)
(3 -3.45474e-16 0)
(3 -2.69271e-16 0)
(3 -3.21259e-17 0)
(3 4.00189e-16 0)
(3 3.65252e-16 0)
(3 -4.47883e-16 0)
(3 -6.51439e-16 0)
(3 -1.11278e-15 0)
(3 -2.06795e-15 0)
(3 -1.66067e-15 0)
(3 -1.04463e-16 0)
(3 1.27456e-15 0)
(3 1.285e-15 0)
(3 4.5708e-16 0)
(3 -1.18991e-15 0)
(3 -2.16986e-15 0)
(3 -1.92206e-15 0)
(3 -1.12939e-15 0)
(3 -6.04992e-16 0)
(3 -9.70059e-16 0)
(3 -1.95439e-16 0)
(3 1.7472e-16 0)
(3 -1.74326e-17 0)
(3 -2.18548e-16 0)
(3 1.17027e-16 0)
(3 2.18155e-16 0)
(3 7.9315e-16 0)
(3 8.44652e-16 0)
(3 -2.67704e-16 0)
(3 1.85073e-16 0)
(3 1.65946e-15 0)
(3 1.65974e-15 0)
(3 4.24639e-16 0)
(3 -2.91573e-16 0)
(3 2.56039e-17 0)
(3 1.86792e-15 0)
(3 2.38638e-15 0)
(3 2.25059e-15 0)
(3 1.40779e-15 0)
(3 -3.04161e-16 0)
(3 -1.82594e-16 0)
(3 -1.76939e-16 0)
(3 2.66751e-17 0)
(3 3.53779e-16 0)
(3 3.79805e-16 0)
(3 7.7145e-16 0)
(3 8.82276e-16 0)
(3 2.23745e-16 0)
(3 1.10522e-16 0)
(3 6.41988e-16 0)
(3 7.62665e-16 0)
(3 2.11396e-16 0)
(3 -4.57508e-16 0)
(3 -6.37838e-16 0)
(3 -9.31582e-16 0)
(3 -1.37369e-15 0)
(3 -1.51718e-15 0)
(3 4.5508e-17 0)
(3 -1.43378e-16 0)
(3 -1.08171e-16 0)
(3 5.03432e-16 0)
(3 9.0158e-16 0)
(3 6.78887e-16 0)
(3 -4.68089e-17 0)
(3 -2.36823e-16 0)
(3 5.63296e-17 0)
(3 5.09876e-16 0)
(3 2.86209e-16 0)
(3 3.89982e-16 0)
(3 1.48158e-15 0)
(3 1.55927e-15 0)
(3 1.48955e-15 0)
(3 1.35351e-15 0)
(3 8.55234e-16 0)
(3 -5.70192e-16 0)
(3 -4.05788e-16 0)
(3 -2.62651e-16 0)
(3 9.44965e-16 0)
(3 1.74051e-15 0)
(3 2.32422e-15 0)
(3 1.81342e-15 0)
(3 1.35707e-15 0)
(3 1.35349e-15 0)
(3 1.81698e-15 0)
(3 2.15041e-15 0)
(3 1.32579e-15 0)
(3 -7.75525e-16 0)
(3 -7.27409e-16 0)
(3 3.93134e-19 0)
(3 -3.00981e-16 0)
(3 1.28023e-16 0)
(3 6.06602e-17 0)
(3 -1.74063e-16 0)
(3 -1.45582e-16 0)
(3 -3.52478e-17 0)
(3 -1.15322e-16 0)
(3 4.53419e-17 0)
(3 3.75728e-16 0)
(3 5.83494e-16 0)
(3 5.35654e-16 0)
(3 -3.66517e-17 0)
(3 -2.67871e-16 0)
(3 -2.03504e-16 0)
(3 -2.31597e-16 0)
(3 -6.74689e-16 0)
(3 -8.52068e-16 0)
(3 -1.06846e-15 0)
(3 -8.57448e-16 0)
(3 -1.2173e-16 0)
(3 4.42575e-16 0)
(3 2.12257e-16 0)
(3 6.0383e-16 0)
(3 1.21536e-15 0)
(3 1.39413e-15 0)
(3 1.5017e-15 0)
(3 1.8722e-15 0)
(3 1.81246e-15 0)
(3 1.41008e-15 0)
(3 1.07982e-15 0)
(3 6.81053e-16 0)
(3 4.25652e-16 0)
(3 -4.63444e-17 0)
(3 2.44996e-16 0)
(3 8.72444e-16 0)
(3 2.13907e-15 0)
(3 2.28556e-15 0)
(3 1.91324e-15 0)
(3 2.12877e-15 0)
(3 2.6555e-15 0)
(3 2.78572e-15 0)
(3 2.85243e-15 0)
(3 2.79854e-15 0)
(3 1.49664e-15 0)
(3 6.9803e-16 0)
(3 -1.82032e-16 0)
(3 -8.95082e-16 0)
(3 -9.94226e-16 0)
(3 -1.58559e-15 0)
(3 -2.91914e-16 0)
(3 -5.08363e-16 0)
(3 -6.35879e-16 0)
(3 -5.99698e-16 0)
(3 -7.58171e-16 0)
(3 -1.85924e-16 0)
(3 1.93695e-16 0)
(3 -8.88761e-17 0)
(3 4.30465e-17 0)
(3 3.38184e-16 0)
(3 5.95319e-16 0)
(3 -1.38627e-16 0)
(3 -4.39145e-16 0)
(3 -6.89659e-16 0)
(3 -7.36813e-16 0)
(3 -8.15526e-16 0)
(3 -6.22042e-16 0)
(3 -4.67293e-16 0)
(3 2.58655e-16 0)
(3 5.15399e-16 0)
(3 5.44349e-16 0)
(3 6.13398e-16 0)
(3 8.50549e-16 0)
(3 1.17509e-15 0)
(3 2.38346e-15 0)
(3 2.42867e-15 0)
(3 9.08021e-16 0)
(3 -9.59438e-17 0)
(3 -6.84548e-16 0)
(3 -6.26048e-16 0)
(3 -8.43317e-16 0)
(3 4.09435e-16 0)
(3 1.27529e-15 0)
(3 1.3215e-15 0)
(3 1.47044e-15 0)
(3 6.34556e-16 0)
(3 -4.6864e-16 0)
(3 -3.36541e-16 0)
(3 8.32033e-16 0)
(3 1.9222e-15 0)
(3 1.72725e-15 0)
(3 8.2886e-16 0)
(3 2.098e-16 0)
(3 7.79968e-16 0)
(3 1.36692e-15 0)
(3 3.57249e-16 0)
(3 -9.42187e-16 0)
(3 -1.08797e-15 0)
(3 -3.92425e-17 0)
(3 -2.80001e-16 0)
(3 -2.45058e-16 0)
(3 -5.32736e-16 0)
(3 -5.10331e-16 0)
(3 -2.96391e-16 0)
(3 -1.7512e-16 0)
(3 1.82112e-16 0)
(3 5.33085e-16 0)
(3 6.78968e-16 0)
(3 1.3034e-15 0)
(3 1.21208e-15 0)
(3 6.98935e-16 0)
(3 2.26623e-16 0)
(3 -6.7902e-16 0)
(3 -5.78535e-16 0)
(3 -5.68397e-16 0)
(3 -7.96221e-17 0)
(3 8.89947e-16 0)
(3 1.46019e-15 0)
(3 9.83378e-16 0)
(3 4.57191e-16 0)
(3 9.86596e-16 0)
(3 9.07746e-16 0)
(3 8.62916e-16 0)
(3 2.09731e-16 0)
(3 -8.43075e-16 0)
(3 -1.41679e-15 0)
(3 -1.83443e-15 0)
(3 -1.9304e-15 0)
(3 -1.84832e-15 0)
(3 -4.45415e-16 0)
(3 5.56096e-16 0)
(3 8.75904e-16 0)
(3 -6.2632e-16 0)
(3 -1.24725e-15 0)
(3 -4.82581e-16 0)
(3 -6.90103e-16 0)
(3 -2.39861e-16 0)
(3 -8.49493e-17 0)
(3 -8.15707e-16 0)
(3 -1.22385e-15 0)
(3 -1.15343e-15 0)
(3 6.95293e-17 0)
(3 9.66013e-16 0)
(3 1.0533e-16 0)
(3 -1.47962e-15 0)
(3 -2.27202e-15 0)
(3 8.50313e-17 0)
(3 1.32063e-16 0)
(3 4.55493e-16 0)
(3 6.13877e-17 0)
(3 -4.34063e-16 0)
(3 -5.87047e-16 0)
(3 -4.74081e-16 0)
(3 3.35876e-16 0)
(3 6.24046e-16 0)
(3 7.04569e-16 0)
(3 1.16891e-15 0)
(3 1.22543e-15 0)
(3 8.04727e-16 0)
(3 -2.84011e-16 0)
(3 -1.12509e-15 0)
(3 -1.24912e-15 0)
(3 -9.86859e-16 0)
(3 -3.99708e-16 0)
(3 -2.4717e-16 0)
(3 -2.68739e-17 0)
(3 2.00107e-16 0)
(3 7.85426e-16 0)
(3 1.19351e-15 0)
(3 1.10694e-16 0)
(3 -6.51783e-16 0)
(3 -9.56925e-16 0)
(3 -1.50145e-15 0)
(3 -1.88062e-15 0)
(3 -2.08621e-15 0)
(3 -2.80241e-15 0)
(3 -3.18998e-15 0)
(3 -2.99595e-15 0)
(3 -2.21369e-15 0)
(3 -8.84503e-16 0)
(3 2.63354e-16 0)
(3 7.03811e-16 0)
(3 8.41008e-16 0)
(3 -9.87061e-16 0)
(3 -2.11739e-15 0)
(3 -1.84653e-15 0)
(3 -5.60423e-16 0)
(3 1.03757e-16 0)
(3 4.47075e-16 0)
(3 -2.86023e-16 0)
(3 -4.90345e-16 0)
(3 -9.40757e-16 0)
(3 -1.82015e-15 0)
(3 -2.02796e-15 0)
(3 3.02079e-17 0)
(3 2.61552e-16 0)
(3 5.89386e-16 0)
(3 5.81505e-16 0)
(3 3.42111e-16 0)
(3 -1.9373e-17 0)
(3 -3.39875e-16 0)
(3 -6.98913e-16 0)
(3 -7.2655e-16 0)
(3 -7.86074e-16 0)
(3 -2.11493e-16 0)
(3 1.90558e-16 0)
(3 -9.84027e-18 0)
(3 -3.74179e-16 0)
(3 -1.56657e-16 0)
(3 -3.10462e-16 0)
(3 -1.83074e-16 0)
(3 -3.61867e-16 0)
(3 -5.10778e-16 0)
(3 -6.0065e-16 0)
(3 -1.95672e-16 0)
(3 -4.87669e-17 0)
(3 -5.83963e-16 0)
(3 -1.16496e-15 0)
(3 -2.06447e-15 0)
(3 -1.96267e-15 0)
(3 -1.48174e-15 0)
(3 -1.51488e-15 0)
(3 -1.61144e-15 0)
(3 -2.12206e-15 0)
(3 -2.24888e-15 0)
(3 -1.6038e-15 0)
(3 -9.2324e-16 0)
(3 -1.62606e-16 0)
(3 6.14194e-16 0)
(3 8.84478e-16 0)
(3 -5.77159e-16 0)
(3 -1.66088e-15 0)
(3 -1.98962e-15 0)
(3 -1.37601e-15 0)
(3 -9.32402e-16 0)
(3 -5.76839e-17 0)
(3 3.27743e-17 0)
(3 -1.6408e-16 0)
(3 -1.47654e-15 0)
(3 -1.1159e-15 0)
(3 -1.25829e-15 0)
(3 -1.37485e-15 0)
(3 7.6244e-17 0)
(3 -5.74503e-17 0)
(3 -4.87929e-16 0)
(3 -1.50104e-16 0)
(3 -7.20513e-17 0)
(3 -2.11588e-16 0)
(3 -4.79716e-16 0)
(3 -6.34917e-16 0)
(3 -7.48839e-16 0)
(3 -1.20215e-15 0)
(3 -1.14235e-15 0)
(3 -1.4529e-15 0)
(3 -1.39306e-15 0)
(3 4.236e-16 0)
(3 8.13416e-16 0)
(3 8.42826e-16 0)
(3 7.14067e-16 0)
(3 6.21772e-16 0)
(3 6.88075e-16 0)
(3 6.87459e-16 0)
(3 7.59089e-16 0)
(3 7.43433e-16 0)
(3 -3.98354e-16 0)
(3 -9.25491e-16 0)
(3 -4.62314e-16 0)
(3 -7.87834e-16 0)
(3 -8.1618e-16 0)
(3 -3.46196e-16 0)
(3 -9.90569e-17 0)
(3 -4.83963e-16 0)
(3 5.33813e-16 0)
(3 7.33912e-16 0)
(3 9.23201e-16 0)
(3 1.63678e-16 0)
(3 -1.83021e-17 0)
(3 -4.83278e-16 0)
(3 -6.0109e-16 0)
(3 -7.97388e-16 0)
(3 -6.90095e-16 0)
(3 -7.15509e-16 0)
(3 -5.43401e-16 0)
(3 -5.80077e-16 0)
(3 -4.5756e-16 0)
(3 -8.80312e-16 0)
(3 -2.10346e-15 0)
(3 -3.0392e-15 0)
(3 -1.29239e-15 0)
(3 -9.45147e-16 0)
(3 -8.49919e-17 0)
(3 -5.68288e-17 0)
(3 -1.92274e-16 0)
(3 -1.31631e-16 0)
(3 -1.2033e-16 0)
(3 -8.9385e-17 0)
(3 4.08866e-16 0)
(3 1.92134e-16 0)
(3 3.62286e-17 0)
(3 -4.67678e-16 0)
(3 -1.34456e-15 0)
(3 -2.16741e-15 0)
(3 -2.28845e-15 0)
(3 -1.16484e-15 0)
(3 2.65676e-16 0)
(3 5.13376e-16 0)
(3 9.49256e-17 0)
(3 7.28346e-18 0)
(3 7.6936e-17 0)
(3 4.50108e-16 0)
(3 1.06015e-15 0)
(3 1.22179e-15 0)
(3 7.69665e-16 0)
(3 1.24175e-15 0)
(3 2.29231e-15 0)
(3 2.35826e-15 0)
(3 1.83828e-15 0)
(3 1.39819e-15 0)
(3 1.72708e-15 0)
(3 1.56473e-15 0)
(3 4.86495e-16 0)
(3 2.67518e-16 0)
(3 -7.94211e-16 0)
(3 -1.54648e-15 0)
(3 -1.17437e-15 0)
(3 -4.23533e-16 0)
(3 -2.81973e-16 0)
(3 5.66179e-16 0)
(3 1.00397e-15 0)
(3 1.20284e-15 0)
(3 1.13264e-15 0)
(3 6.12676e-16 0)
(3 9.8119e-17 0)
(3 -1.09391e-15 0)
(3 -1.63587e-15 0)
(3 -2.97986e-15 0)
(3 -1.89267e-15 0)
(3 -1.1087e-15 0)
(3 1.06277e-16 0)
(3 2.24405e-16 0)
(3 1.52911e-16 0)
(3 -1.7027e-16 0)
(3 3.52793e-16 0)
(3 6.70372e-16 0)
(3 5.26264e-16 0)
(3 5.32872e-16 0)
(3 1.52899e-16 0)
(3 -3.16493e-16 0)
(3 -9.63384e-16 0)
(3 -1.10329e-15 0)
(3 -1.23689e-15 0)
(3 -1.12706e-15 0)
(3 -4.783e-16 0)
(3 -5.78174e-16 0)
(3 -5.31239e-16 0)
(3 -2.31768e-16 0)
(3 -2.67754e-16 0)
(3 -2.52256e-16 0)
(3 1.81686e-16 0)
(3 6.52864e-16 0)
(3 1.9115e-15 0)
(3 2.99753e-15 0)
(3 3.58437e-15 0)
(3 3.41015e-15 0)
(3 1.76067e-15 0)
(3 1.61739e-15 0)
(3 1.04427e-15 0)
(3 1.84239e-15 0)
(3 4.45042e-16 0)
(3 1.80983e-16 0)
(3 -7.27341e-16 0)
(3 -1.18145e-15 0)
(3 -1.0125e-15 0)
(3 -7.37384e-16 0)
(3 5.48049e-16 0)
(3 2.87384e-15 0)
(3 3.74131e-15 0)
(3 4.01629e-15 0)
(3 3.39016e-15 0)
(3 1.79514e-15 0)
(3 4.54464e-16 0)
(3 -7.99743e-16 0)
(3 -1.3429e-15 0)
(3 -1.14964e-15 0)
(3 -1.28407e-15 0)
(3 -1.05648e-15 0)
(3 1.05331e-17 0)
(3 -8.09439e-17 0)
(3 -1.81805e-16 0)
(3 -1.39714e-16 0)
(3 1.52654e-16 0)
(3 8.00146e-17 0)
(3 2.62079e-16 0)
(3 7.37038e-16 0)
(3 -3.38948e-16 0)
(3 -6.29276e-16 0)
(3 -8.50232e-16 0)
(3 -8.45518e-16 0)
(3 -7.21316e-16 0)
(3 -6.28771e-16 0)
(3 -1.10628e-15 0)
(3 -1.65927e-15 0)
(3 -7.78776e-16 0)
(3 -4.96345e-16 0)
(3 -4.52449e-16 0)
(3 -8.01623e-16 0)
(3 -5.89368e-16 0)
(3 -2.40545e-17 0)
(3 1.17342e-15 0)
(3 1.76526e-15 0)
(3 2.29769e-15 0)
(3 2.95403e-15 0)
(3 2.64216e-15 0)
(3 1.33431e-15 0)
(3 8.17602e-16 0)
(3 6.47065e-16 0)
(3 3.17292e-16 0)
(3 2.22675e-17 0)
(3 -5.83508e-16 0)
(3 -7.96358e-16 0)
(3 -6.81182e-16 0)
(3 -2.25544e-16 0)
(3 1.97891e-15 0)
(3 3.74894e-15 0)
(3 4.13198e-15 0)
(3 4.10048e-15 0)
(3 4.20828e-15 0)
(3 4.36243e-15 0)
(3 2.68672e-15 0)
(3 1.61439e-15 0)
(3 1.07146e-15 0)
(3 9.83786e-16 0)
(3 -3.99659e-16 0)
(3 -4.77653e-16 0)
(3 -1.23794e-16 0)
(3 3.80435e-17 0)
(3 1.31315e-16 0)
(3 -3.78246e-17 0)
(3 -4.84205e-16 0)
(3 -2.63128e-16 0)
(3 2.55466e-16 0)
(3 -2.23662e-16 0)
(3 -6.30749e-16 0)
(3 -4.85966e-16 0)
(3 -5.75617e-16 0)
(3 -6.37436e-16 0)
(3 -2.04775e-16 0)
(3 -4.71529e-16 0)
(3 -6.10815e-16 0)
(3 -2.5516e-16 0)
(3 -5.00491e-16 0)
(3 -8.1891e-16 0)
(3 -2.76689e-16 0)
(3 -5.41346e-16 0)
(3 -1.51375e-15 0)
(3 -3.38035e-16 0)
(3 5.30891e-16 0)
(3 1.2111e-15 0)
(3 1.75731e-15 0)
(3 1.69378e-15 0)
(3 1.79517e-15 0)
(3 1.59278e-15 0)
(3 1.35082e-15 0)
(3 -3.12502e-16 0)
(3 -5.37952e-16 0)
(3 -3.46694e-16 0)
(3 -4.10465e-16 0)
(3 -2.58728e-17 0)
(3 3.58613e-16 0)
(3 9.68958e-16 0)
(3 2.07207e-15 0)
(3 1.63452e-15 0)
(3 1.52183e-15 0)
(3 1.00335e-15 0)
(3 1.76481e-15 0)
(3 3.36004e-15 0)
(3 3.49956e-15 0)
(3 3.40238e-15 0)
(3 3.20311e-15 0)
(3 2.82023e-15 0)
(3 1.63892e-15 0)
(3 3.97306e-16 0)
(3 8.691e-17 0)
(3 2.50046e-16 0)
(3 1.79189e-16 0)
(3 1.49015e-16 0)
(3 5.675e-17 0)
(3 5.77789e-17 0)
(3 -1.29762e-16 0)
(3 -5.15273e-16 0)
(3 -3.36699e-16 0)
(3 3.38883e-17 0)
(3 -7.2299e-17 0)
(3 3.16209e-16 0)
(3 7.84372e-16 0)
(3 1.05341e-15 0)
(3 8.07007e-16 0)
(3 7.29565e-16 0)
(3 6.44279e-16 0)
(3 3.67017e-16 0)
(3 -2.43479e-16 0)
(3 -1.05043e-16 0)
(3 -9.42762e-17 0)
(3 6.75172e-16 0)
(3 1.2825e-15 0)
(3 1.16082e-15 0)
(3 7.36824e-16 0)
(3 1.10962e-16 0)
(3 2.8662e-16 0)
(3 5.54649e-16 0)
(3 8.06873e-16 0)
(3 -1.04894e-16 0)
(3 -1.60165e-15 0)
(3 -9.3298e-16 0)
(3 3.94414e-16 0)
(3 6.94552e-16 0)
(3 9.09655e-16 0)
(3 5.12956e-16 0)
(3 1.05472e-15 0)
(3 6.20496e-16 0)
(3 -4.15121e-16 0)
(3 -5.45172e-16 0)
(3 -5.80701e-16 0)
(3 -5.63759e-16 0)
(3 4.43391e-16 0)
(3 1.82494e-15 0)
(3 2.31361e-15 0)
(3 2.46596e-15 0)
(3 2.34003e-15 0)
(3 9.06821e-16 0)
(3 6.22463e-17 0)
(3 2.83789e-17 0)
(3 6.99587e-19 0)
(3 2.84853e-16 0)
(3 5.13519e-16 0)
(3 1.32677e-16 0)
(3 2.92979e-17 0)
(3 -1.06513e-16 0)
(3 2.89962e-16 0)
(3 9.62636e-16 0)
(3 8.06315e-16 0)
(3 8.0872e-16 0)
(3 1.38982e-15 0)
(3 1.41909e-15 0)
(3 1.34443e-15 0)
(3 1.12352e-15 0)
(3 1.66359e-15 0)
(3 1.73416e-15 0)
(3 1.59889e-15 0)
(3 1.5396e-15 0)
(3 2.19986e-15 0)
(3 2.00971e-15 0)
(3 8.47593e-16 0)
(3 2.8732e-16 0)
(3 2.17335e-17 0)
(3 -2.84742e-16 0)
(3 -8.06491e-16 0)
(3 -1.39181e-15 0)
(3 -1.19236e-15 0)
(3 -7.86065e-16 0)
(3 -5.62436e-16 0)
(3 -3.79543e-16 0)
(3 4.40544e-16 0)
(3 5.22438e-16 0)
(3 4.75007e-16 0)
(3 6.12051e-17 0)
(3 -3.69675e-16 0)
(3 -3.10264e-16 0)
(3 -1.02209e-15 0)
(3 -7.63594e-16 0)
(3 1.2768e-17 0)
(3 1.19481e-15 0)
(3 1.78241e-15 0)
(3 1.77928e-15 0)
(3 1.72854e-15 0)
(3 2.35977e-15 0)
(3 2.69055e-15 0)
(3 2.83422e-15 0)
(3 -1.65367e-16 0)
(3 -7.3036e-17 0)
(3 7.38902e-18 0)
(3 1.50825e-17 0)
(3 -2.22267e-16 0)
(3 -1.52705e-16 0)
(3 -2.77308e-16 0)
(3 -2.99725e-16 0)
(3 2.60156e-16 0)
(3 4.50663e-16 0)
(3 1.03596e-15 0)
(3 1.1465e-15 0)
(3 1.17161e-15 0)
(3 8.86432e-16 0)
(3 1.42259e-15 0)
(3 2.14832e-15 0)
(3 2.44074e-15 0)
(3 2.96962e-15 0)
(3 3.24074e-15 0)
(3 2.37582e-15 0)
(3 1.2706e-15 0)
(3 9.94797e-16 0)
(3 -1.02177e-15 0)
(3 -1.70134e-15 0)
(3 -1.39333e-15 0)
(3 -9.33109e-16 0)
(3 -8.78566e-16 0)
(3 -1.01636e-15 0)
(3 -6.58573e-16 0)
(3 3.1345e-16 0)
(3 7.79942e-16 0)
(3 -4.93276e-16 0)
(3 -1.39846e-17 0)
(3 6.95228e-16 0)
(3 1.18998e-15 0)
(3 3.07378e-16 0)
(3 -9.13072e-16 0)
(3 -1.05235e-16 0)
(3 -1.08347e-16 0)
(3 5.5631e-16 0)
(3 9.07831e-16 0)
(3 1.49e-15 0)
(3 1.56808e-15 0)
(3 1.58908e-15 0)
(3 1.6411e-15 0)
(3 1.71164e-15 0)
(3 1.39269e-15 0)
(3 1.56728e-15 0)
(3 -1.47025e-16 0)
(3 -3.18369e-16 0)
(3 2.06489e-16 0)
(3 2.27041e-16 0)
(3 -2.63586e-16 0)
(3 -5.86855e-16 0)
(3 -4.36338e-16 0)
(3 3.01294e-16 0)
(3 3.11665e-16 0)
(3 2.07816e-16 0)
(3 6.33892e-16 0)
(3 1.03619e-15 0)
(3 9.64557e-16 0)
(3 1.14249e-15 0)
(3 1.19205e-15 0)
(3 1.17039e-15 0)
(3 1.22688e-15 0)
(3 1.67391e-15 0)
(3 1.89584e-15 0)
(3 1.86027e-15 0)
(3 6.41178e-16 0)
(3 -1.05405e-16 0)
(3 -1.37524e-15 0)
(3 -1.00998e-15 0)
(3 -1.00281e-15 0)
(3 -9.18867e-16 0)
(3 -2.88661e-16 0)
(3 -8.2837e-17 0)
(3 3.81476e-16 0)
(3 9.04568e-16 0)
(3 4.00759e-16 0)
(3 -2.34726e-16 0)
(3 -5.73558e-16 0)
(3 -1.68466e-16 0)
(3 -1.05894e-16 0)
(3 -7.86968e-16 0)
(3 -6.37416e-16 0)
(3 -1.90627e-16 0)
(3 1.44061e-15 0)
(3 1.58684e-15 0)
(3 6.62846e-16 0)
(3 -3.34309e-16 0)
(3 -7.75906e-16 0)
(3 2.86158e-16 0)
(3 8.62799e-16 0)
(3 1.40812e-15 0)
(3 8.4593e-16 0)
(3 1.01359e-15 0)
(3 3.96646e-18 0)
(3 -1.89912e-16 0)
(3 -2.93418e-16 0)
(3 -3.06826e-16 0)
(3 -1.63913e-16 0)
(3 -3.10805e-16 0)
(3 -2.8743e-16 0)
(3 1.42251e-16 0)
(3 2.87599e-16 0)
(3 7.27596e-16 0)
(3 8.92997e-16 0)
(3 1.04737e-15 0)
(3 1.56062e-15 0)
(3 1.9665e-15 0)
(3 2.43437e-15 0)
(3 2.53243e-15 0)
(3 2.51533e-15 0)
(3 2.4931e-15 0)
(3 2.80621e-15 0)
(3 2.90191e-15 0)
(3 2.31596e-15 0)
(3 1.55104e-16 0)
(3 -9.28782e-16 0)
(3 -9.73259e-16 0)
(3 -9.86119e-16 0)
(3 -9.74735e-16 0)
(3 -1.15542e-15 0)
(3 -8.67938e-16 0)
(3 5.39482e-17 0)
(3 -1.27642e-16 0)
(3 9.94217e-18 0)
(3 7.51614e-16 0)
(3 9.28413e-16 0)
(3 8.089e-16 0)
(3 4.55958e-16 0)
(3 4.54928e-16 0)
(3 6.97951e-16 0)
(3 1.17288e-15 0)
(3 2.03247e-15 0)
(3 2.34715e-15 0)
(3 2.38466e-15 0)
(3 1.48297e-15 0)
(3 4.14052e-16 0)
(3 1.9512e-17 0)
(3 3.31015e-16 0)
(3 -1.99489e-16 0)
(3 -4.09972e-16 0)
(3 -3.05739e-16 0)
(3 4.37752e-17 0)
(3 2.10424e-16 0)
(3 2.54695e-17 0)
(3 -8.51615e-17 0)
(3 1.80856e-16 0)
(3 6.348e-16 0)
(3 3.15044e-16 0)
(3 -5.18282e-17 0)
(3 3.27974e-16 0)
(3 4.44483e-16 0)
(3 4.24228e-16 0)
(3 2.12121e-16 0)
(3 4.74635e-17 0)
(3 1.27289e-17 0)
(3 1.18372e-15 0)
(3 2.02015e-15 0)
(3 1.92156e-15 0)
(3 2.23091e-15 0)
(3 1.96739e-15 0)
(3 9.60359e-16 0)
(3 5.90615e-16 0)
(3 5.73282e-16 0)
(3 -1.39892e-15 0)
(3 -2.56139e-15 0)
(3 -2.81732e-15 0)
(3 -2.87919e-15 0)
(3 -2.88124e-15 0)
(3 -2.21896e-15 0)
(3 -8.76065e-16 0)
(3 -1.3454e-16 0)
(3 5.54447e-17 0)
(3 7.08335e-17 0)
(3 4.33156e-16 0)
(3 6.86469e-16 0)
(3 7.43943e-16 0)
(3 1.81382e-15 0)
(3 1.86697e-15 0)
(3 1.42701e-15 0)
(3 8.72418e-16 0)
(3 5.45054e-16 0)
(3 8.91856e-16 0)
(3 1.05994e-15 0)
(3 -1.7901e-16 0)
(3 -9.26186e-16 0)
(3 -8.50756e-16 0)
(3 -1.6089e-15 0)
(3 -1.79327e-15 0)
(3 -1.29168e-15 0)
(3 3.06133e-17 0)
(3 1.30242e-16 0)
(3 2.79473e-16 0)
(3 2.65822e-16 0)
(3 4.05915e-16 0)
(3 4.07086e-16 0)
(3 4.17902e-16 0)
(3 -1.32082e-16 0)
(3 4.38679e-18 0)
(3 -4.41408e-17 0)
(3 -1.47677e-16 0)
(3 -1.87392e-16 0)
(3 -4.69627e-16 0)
(3 -6.22259e-16 0)
(3 -4.43785e-16 0)
(3 -2.98704e-16 0)
(3 8.57196e-17 0)
(3 8.86306e-17 0)
(3 -9.56186e-16 0)
(3 -1.13015e-15 0)
(3 -5.9351e-16 0)
(3 6.50568e-16 0)
(3 -5.66231e-16 0)
(3 -2.14986e-15 0)
(3 -2.31845e-15 0)
(3 -2.32797e-15 0)
(3 -2.16748e-15 0)
(3 -2.39527e-15 0)
(3 -2.44423e-15 0)
(3 -2.48252e-15 0)
(3 -5.00104e-16 0)
(3 -3.74584e-16 0)
(3 -2.58969e-16 0)
(3 2.62927e-16 0)
(3 2.11946e-15 0)
(3 2.44636e-15 0)
(3 2.32189e-15 0)
(3 1.82963e-15 0)
(3 8.40675e-16 0)
(3 1.67101e-16 0)
(3 -1.05368e-16 0)
(3 -6.13674e-16 0)
(3 -7.79442e-16 0)
(3 -4.61463e-16 0)
(3 -4.92521e-16 0)
(3 -1.89228e-16 0)
(3 1.1513e-17 0)
(3 1.07465e-16 0)
(3 1.29184e-16 0)
(3 -1.52373e-16 0)
(3 -6.32909e-16 0)
(3 -8.4677e-16 0)
(3 -6.39711e-16 0)
(3 -4.56458e-16 0)
(3 -4.69276e-16 0)
(3 -2.54362e-16 0)
(3 -2.48e-16 0)
(3 -4.22705e-16 0)
(3 -5.61294e-16 0)
(3 -1.52572e-16 0)
(3 4.89007e-17 0)
(3 -1.23196e-16 0)
(3 -2.21873e-16 0)
(3 1.90794e-16 0)
(3 -2.30969e-16 0)
(3 -6.83866e-16 0)
(3 -1.44498e-15 0)
(3 -1.26634e-15 0)
(3 -5.572e-16 0)
(3 -5.01833e-16 0)
(3 -8.76388e-16 0)
(3 -5.67277e-16 0)
(3 6.44673e-17 0)
(3 8.89623e-16 0)
(3 8.31932e-16 0)
(3 8.67778e-16 0)
(3 5.54304e-16 0)
(3 -8.72462e-16 0)
(3 -1.0529e-15 0)
(3 -5.79685e-16 0)
(3 6.34392e-17 0)
(3 1.38771e-15 0)
(3 2.85776e-15 0)
(3 2.85656e-15 0)
(3 2.01514e-15 0)
(3 1.12431e-15 0)
(3 8.88493e-16 0)
(3 3.15394e-16 0)
(3 2.77989e-16 0)
(3 6.94061e-16 0)
(3 9.44554e-16 0)
(3 1.09172e-16 0)
(3 -2.60295e-16 0)
(3 -7.00929e-17 0)
(3 1.21567e-15 0)
(3 1.83371e-15 0)
(3 4.72966e-17 0)
(3 -2.94706e-18 0)
(3 -3.14619e-16 0)
(3 -6.32358e-16 0)
(3 -1.02396e-15 0)
(3 -9.1237e-16 0)
(3 -7.42843e-16 0)
(3 -6.65896e-17 0)
(3 4.02271e-17 0)
(3 4.26721e-16 0)
(3 2.93356e-16 0)
(3 4.67587e-16 0)
(3 6.55881e-16 0)
(3 2.28266e-16 0)
(3 -5.84416e-16 0)
(3 -8.3347e-17 0)
(3 3.32928e-17 0)
(3 -4.98269e-16 0)
(3 -7.67992e-16 0)
(3 -1.36151e-15 0)
(3 -1.50917e-15 0)
(3 -8.95012e-16 0)
(3 7.94099e-16 0)
(3 5.41863e-16 0)
(3 2.51493e-16 0)
(3 1.52764e-16 0)
(3 7.34807e-16 0)
(3 1.74774e-15 0)
(3 1.31702e-15 0)
(3 6.73148e-16 0)
(3 4.10686e-16 0)
(3 1.73331e-15 0)
(3 2.6049e-15 0)
(3 2.83924e-15 0)
(3 3.24331e-15 0)
(3 3.42954e-15 0)
(3 3.19076e-15 0)
(3 1.72404e-15 0)
(3 4.25644e-16 0)
(3 1.42399e-16 0)
(3 1.16276e-15 0)
(3 1.69408e-15 0)
(3 4.19846e-16 0)
(3 -6.42599e-16 0)
(3 -1.04623e-15 0)
(3 3.16532e-16 0)
(3 1.72756e-15 0)
(3 2.34721e-15 0)
(3 -1.40329e-16 0)
(3 2.66249e-17 0)
(3 5.25875e-17 0)
(3 4.49811e-16 0)
(3 5.95109e-16 0)
(3 3.69741e-16 0)
(3 4.48735e-17 0)
(3 -1.45798e-16 0)
(3 3.51281e-17 0)
(3 5.27993e-16 0)
(3 9.03614e-16 0)
(3 4.83073e-16 0)
(3 1.55121e-16 0)
(3 -4.06474e-17 0)
(3 -4.08714e-16 0)
(3 -5.4381e-16 0)
(3 -2.90156e-16 0)
(3 -1.55149e-15 0)
(3 -1.22708e-15 0)
(3 9.80864e-17 0)
(3 -1.04236e-16 0)
(3 -4.63604e-16 0)
(3 7.88518e-16 0)
(3 9.8634e-17 0)
(3 -4.60202e-16 0)
(3 -5.86653e-16 0)
(3 -2.4335e-19 0)
(3 3.08731e-16 0)
(3 -2.59592e-17 0)
(3 -7.80857e-17 0)
(3 -4.14905e-17 0)
(3 3.00972e-16 0)
(3 5.02601e-16 0)
(3 2.24709e-15 0)
(3 4.07114e-15 0)
(3 4.90045e-15 0)
(3 4.33542e-15 0)
(3 1.75115e-15 0)
(3 1.33187e-15 0)
(3 1.10872e-15 0)
(3 4.52653e-16 0)
(3 -2.30762e-16 0)
(3 -5.91625e-16 0)
(3 1.14809e-15 0)
(3 1.48519e-15 0)
(3 9.44604e-16 0)
(3 4.19603e-16 0)
(3 1.36959e-15 0)
(3 4.88832e-17 0)
(3 -9.68428e-17 0)
(3 1.74529e-17 0)
(3 6.28244e-16 0)
(3 1.212e-15 0)
(3 9.46401e-16 0)
(3 8.98289e-16 0)
(3 6.95438e-16 0)
(3 2.47101e-16 0)
(3 -4.39586e-16 0)
(3 -5.14538e-16 0)
(3 -5.17187e-16 0)
(3 -4.00644e-16 0)
(3 -4.33608e-16 0)
(3 -4.54715e-16 0)
(3 -6.24535e-16 0)
(3 -9.86554e-16 0)
(3 -1.4381e-15 0)
(3 -9.81487e-16 0)
(3 2.09843e-16 0)
(3 6.82884e-16 0)
(3 4.74839e-16 0)
(3 5.07108e-16 0)
(3 1.64722e-16 0)
(3 -4.45767e-16 0)
(3 -1.59498e-17 0)
(3 1.02083e-15 0)
(3 7.37216e-16 0)
(3 8.73551e-18 0)
(3 -1.31015e-15 0)
(3 -1.25575e-15 0)
(3 -3.06975e-16 0)
(3 -1.55031e-16 0)
(3 -5.66771e-17 0)
(3 1.04415e-16 0)
(3 7.08152e-16 0)
(3 2.59557e-15 0)
(3 1.91867e-15 0)
(3 1.84264e-15 0)
(3 8.53262e-16 0)
(3 2.30994e-17 0)
(3 -1.10786e-15 0)
(3 -1.43772e-15 0)
(3 -1.04055e-15 0)
(3 -2.03804e-16 0)
(3 -1.59697e-16 0)
(3 -1.21946e-16 0)
(3 2.6823e-17 0)
(3 2.01848e-16 0)
(3 8.7013e-17 0)
(3 1.15548e-16 0)
(3 3.26573e-16 0)
(3 4.16088e-16 0)
(3 2.1551e-16 0)
(3 5.91964e-16 0)
(3 7.2679e-16 0)
(3 1.61344e-16 0)
(3 -3.06765e-16 0)
(3 -1.11254e-15 0)
(3 -1.08736e-15 0)
(3 -1.25445e-15 0)
(3 -6.51853e-16 0)
(3 5.04187e-17 0)
(3 -1.2141e-16 0)
(3 -2.63552e-16 0)
(3 -1.14963e-16 0)
(3 3.55454e-17 0)
(3 4.56274e-16 0)
(3 1.25344e-15 0)
(3 2.06564e-15 0)
(3 1.92846e-15 0)
(3 1.05575e-15 0)
(3 6.97042e-16 0)
(3 -4.35256e-16 0)
(3 -7.31173e-16 0)
(3 -5.19467e-16 0)
(3 -3.4047e-16 0)
(3 -8.61805e-16 0)
(3 -7.09688e-16 0)
(3 -5.44455e-16 0)
(3 -8.15822e-16 0)
(3 -1.46921e-15 0)
(3 -2.40499e-15 0)
(3 -2.34821e-15 0)
(3 2.03154e-15 0)
(3 3.58799e-15 0)
(3 1.19557e-15 0)
(3 4.14675e-16 0)
(3 6.44936e-16 0)
(3 -5.448e-16 0)
(3 -1.40865e-15 0)
(3 -1.82249e-15 0)
(3 -1.50838e-15 0)
(3 -6.64285e-16 0)
(3 -5.08712e-17 0)
(3 2.23196e-17 0)
(3 -5.77045e-17 0)
(3 1.71032e-16 0)
(3 1.08917e-16 0)
(3 -1.21003e-16 0)
(3 -2.56138e-16 0)
(3 -3.09201e-16 0)
(3 8.48593e-17 0)
(3 2.06594e-16 0)
(3 2.15965e-16 0)
(3 3.65899e-16 0)
(3 5.20093e-16 0)
(3 2.76923e-16 0)
(3 9.58287e-17 0)
(3 -1.3896e-16 0)
(3 2.55486e-16 0)
(3 1.62656e-16 0)
(3 6.35877e-17 0)
(3 -2.45857e-17 0)
(3 -1.44088e-16 0)
(3 -1.17466e-16 0)
(3 7.32828e-16 0)
(3 2.23328e-15 0)
(3 3.10081e-15 0)
(3 2.59841e-15 0)
(3 1.48125e-15 0)
(3 1.15794e-17 0)
(3 -7.65644e-16 0)
(3 -1.41816e-15 0)
(3 -7.01821e-16 0)
(3 -8.05128e-16 0)
(3 -1.50381e-15 0)
(3 -2.11187e-15 0)
(3 -2.02203e-15 0)
(3 -1.85969e-15 0)
(3 -1.88366e-15 0)
(3 -1.83577e-15 0)
(3 -5.07969e-16 0)
(3 1.48617e-15 0)
(3 2.34736e-15 0)
(3 2.15349e-15 0)
(3 1.09334e-15 0)
(3 4.52201e-16 0)
(3 -2.86652e-16 0)
(3 -3.79954e-16 0)
(3 -8.77624e-16 0)
(3 -2.57385e-16 0)
(3 6.29924e-16 0)
(3 8.04036e-16 0)
(3 -2.89934e-17 0)
(3 2.33704e-16 0)
(3 6.16871e-16 0)
(3 5.62971e-16 0)
(3 4.02171e-16 0)
(3 -1.31729e-16 0)
(3 -8.39117e-16 0)
(3 -8.33516e-16 0)
(3 -1.42e-16 0)
(3 7.009e-16 0)
(3 7.21677e-16 0)
(3 9.42212e-16 0)
(3 1.17313e-15 0)
(3 7.94581e-16 0)
(3 3.28041e-16 0)
(3 4.66501e-16 0)
(3 4.20952e-16 0)
(3 2.78874e-16 0)
(3 2.0352e-16 0)
(3 7.10535e-18 0)
(3 1.16906e-16 0)
(3 7.7886e-16 0)
(3 1.6111e-15 0)
(3 1.66963e-15 0)
(3 1.47551e-15 0)
(3 9.68599e-16 0)
(3 -2.28822e-16 0)
(3 -2.85349e-16 0)
(3 3.13712e-16 0)
(3 4.58142e-16 0)
(3 3.66632e-16 0)
(3 1.03421e-16 0)
(3 3.59263e-16 0)
(3 3.34007e-16 0)
(3 3.27842e-16 0)
(3 2.06624e-16 0)
(3 2.14078e-16 0)
(3 1.44138e-16 0)
(3 1.938e-16 0)
(3 4.13498e-16 0)
(3 8.04608e-16 0)
(3 1.36324e-15 0)
(3 1.85793e-15 0)
(3 1.95695e-15 0)
(3 1.76282e-15 0)
(3 1.34115e-15 0)
(3 9.24019e-16 0)
(3 -3.22221e-16 0)
(3 1.01758e-16 0)
(3 2.06886e-16 0)
(3 3.0486e-16 0)
(3 2.20896e-16 0)
(3 2.94083e-16 0)
(3 2.15317e-16 0)
(3 -2.93872e-16 0)
(3 -8.65831e-16 0)
(3 4.28221e-16 0)
(3 6.00879e-16 0)
(3 5.14233e-16 0)
(3 1.3149e-15 0)
(3 1.5144e-15 0)
(3 1.49412e-15 0)
(3 6.90052e-16 0)
(3 5.60512e-16 0)
(3 1.4759e-16 0)
(3 -1.7599e-16 0)
(3 -4.44818e-16 0)
(3 -1.15837e-15 0)
(3 -1.36867e-15 0)
(3 -7.80986e-16 0)
(3 -7.46936e-16 0)
(3 -5.7685e-16 0)
(3 1.0039e-16 0)
(3 5.00668e-16 0)
(3 -6.83463e-17 0)
(3 -8.47781e-16 0)
(3 4.91498e-16 0)
(3 1.53663e-15 0)
(3 1.74816e-15 0)
(3 1.55293e-15 0)
(3 1.53525e-15 0)
(3 1.58223e-15 0)
(3 1.19751e-15 0)
(3 9.66939e-16 0)
(3 -8.90132e-17 0)
(3 -1.25475e-15 0)
(3 -3.81163e-16 0)
(3 6.76576e-18 0)
(3 5.69292e-16 0)
(3 2.26512e-15 0)
(3 3.01241e-15 0)
(3 3.39928e-15 0)
(3 3.8262e-15 0)
(3 2.8586e-15 0)
(3 5.18532e-16 0)
(3 -5.7097e-16 0)
(3 -5.08732e-18 0)
(3 -1.62088e-16 0)
(3 -7.1449e-16 0)
(3 -9.40192e-16 0)
(3 -9.48342e-16 0)
(3 -3.62017e-16 0)
(3 -1.80432e-16 0)
(3 -4.5188e-16 0)
(3 5.25017e-17 0)
(3 -6.87961e-17 0)
(3 2.19002e-16 0)
(3 5.36528e-16 0)
(3 4.49192e-16 0)
(3 6.73937e-16 0)
(3 7.9207e-16 0)
(3 1.06905e-16 0)
(3 -6.42129e-16 0)
(3 -1.67891e-15 0)
(3 -2.02991e-15 0)
(3 -1.95752e-15 0)
(3 -1.43118e-15 0)
(3 -1.12083e-15 0)
(3 -1.0892e-15 0)
(3 -1.48958e-15 0)
(3 -1.82295e-15 0)
(3 -1.43589e-17 0)
(3 2.61546e-16 0)
(3 -6.95035e-18 0)
(3 2.53524e-16 0)
(3 1.10272e-15 0)
(3 1.35223e-15 0)
(3 2.13701e-15 0)
(3 2.04904e-15 0)
(3 1.75012e-15 0)
(3 1.09525e-15 0)
(3 1.01376e-16 0)
(3 -7.51222e-16 0)
(3 -1.26957e-15 0)
(3 -7.19007e-16 0)
(3 -6.85487e-16 0)
(3 -6.48837e-16 0)
(3 1.57691e-15 0)
(3 2.35554e-15 0)
(3 3.07456e-15 0)
(3 3.03689e-15 0)
(3 1.54653e-15 0)
(3 2.86545e-16 0)
(3 -6.82913e-16 0)
(3 7.50713e-17 0)
(3 -3.10905e-16 0)
(3 -2.83656e-16 0)
(3 -8.35719e-17 0)
(3 2.22773e-16 0)
(3 -1.08922e-16 0)
(3 -4.39784e-16 0)
(3 3.09356e-17 0)
(3 -7.6422e-16 0)
(3 -1.12114e-15 0)
(3 -7.99403e-16 0)
(3 -5.70243e-16 0)
(3 -6.16171e-16 0)
(3 -8.53588e-16 0)
(3 -1.20222e-15 0)
(3 -1.17238e-16 0)
(3 5.1662e-16 0)
(3 5.47018e-16 0)
(3 5.95457e-16 0)
(3 1.08278e-15 0)
(3 6.66201e-16 0)
(3 1.36867e-16 0)
(3 -1.01212e-15 0)
(3 -1.28703e-15 0)
(3 -1.34333e-15 0)
(3 -1.4937e-15 0)
(3 -1.29809e-15 0)
(3 -1.01598e-16 0)
(3 -1.91878e-16 0)
(3 3.23888e-16 0)
(3 6.12703e-16 0)
(3 3.96817e-16 0)
(3 5.88577e-16 0)
(3 8.33726e-16 0)
(3 5.46992e-16 0)
(3 4.152e-16 0)
(3 -5.42117e-17 0)
(3 -1.00997e-15 0)
(3 -1.17344e-15 0)
(3 -2.00551e-15 0)
(3 -1.86003e-15 0)
(3 -5.32918e-16 0)
(3 7.9606e-16 0)
(3 1.43707e-15 0)
(3 9.30877e-16 0)
(3 -4.78334e-16 0)
(3 -1.50914e-16 0)
(3 -4.23654e-16 0)
(3 -1.91286e-17 0)
(3 1.9138e-16 0)
(3 4.71391e-16 0)
(3 8.11902e-16 0)
(3 5.86766e-16 0)
(3 1.27231e-16 0)
(3 2.9152e-16 0)
(3 9.17471e-16 0)
(3 -7.06325e-16 0)
(3 -1.2086e-15 0)
(3 -8.50385e-16 0)
(3 -1.08498e-15 0)
(3 -1.07785e-15 0)
(3 -8.47991e-16 0)
(3 -1.22425e-15 0)
(3 -1.05693e-15 0)
(3 2.59492e-16 0)
(3 9.25843e-16 0)
(3 9.49472e-16 0)
(3 1.0674e-15 0)
(3 3.69499e-16 0)
(3 -2.00962e-16 0)
(3 -1.83614e-15 0)
(3 -1.92628e-15 0)
(3 -1.71926e-15 0)
(3 -1.79043e-15 0)
(3 -4.30832e-16 0)
(3 1.56775e-15 0)
(3 1.75956e-15 0)
(3 4.58181e-16 0)
(3 3.59585e-16 0)
(3 -7.27435e-16 0)
(3 -1.59628e-15 0)
(3 -1.21494e-15 0)
(3 -2.80947e-16 0)
(3 2.61133e-16 0)
(3 -3.44355e-16 0)
(3 -2.05334e-15 0)
(3 -2.86526e-15 0)
(3 -1.52317e-15 0)
(3 -3.15438e-16 0)
(3 -3.65002e-16 0)
(3 -1.77372e-16 0)
(3 -5.12818e-17 0)
(3 2.91563e-16 0)
(3 1.32368e-15 0)
(3 1.02372e-15 0)
(3 7.8581e-16 0)
(3 -2.3689e-16 0)
(3 -9.52546e-17 0)
(3 5.13263e-17 0)
(3 -7.65762e-17 0)
(3 -6.47833e-16 0)
(3 -9.65786e-16 0)
(3 -4.53662e-16 0)
(3 -9.94299e-16 0)
(3 -9.59611e-16 0)
(3 -1.01585e-15 0)
(3 -1.24403e-15 0)
(3 -9.45751e-16 0)
(3 -8.89693e-16 0)
(3 -4.29684e-16 0)
(3 -5.08097e-16 0)
(3 -1.15846e-15 0)
(3 -6.36583e-16 0)
(3 -4.75165e-16 0)
(3 -8.19385e-16 0)
(3 -8.62849e-16 0)
(3 -5.4115e-16 0)
(3 -7.86402e-16 0)
(3 -2.40863e-15 0)
(3 -2.19933e-15 0)
(3 -1.83689e-15 0)
(3 -1.44376e-15 0)
(3 7.52576e-16 0)
(3 1.65022e-15 0)
(3 2.18539e-15 0)
(3 2.02822e-15 0)
(3 1.11541e-15 0)
(3 5.35921e-16 0)
(3 -1.12329e-16 0)
(3 -3.34105e-16 0)
(3 3.40411e-16 0)
(3 1.02293e-15 0)
(3 -9.84025e-17 0)
(3 -1.27979e-15 0)
(3 -1.79627e-15 0)
(3 -1.59207e-15 0)
(3 -1.21111e-15 0)
(3 -1.14802e-15 0)
(3 -1.93488e-15 0)
(3 -8.19887e-16 0)
(3 -4.36614e-16 0)
(3 -4.32994e-17 0)
(3 1.6218e-16 0)
(3 3.15784e-16 0)
(3 -9.13655e-17 0)
(3 -4.40111e-16 0)
(3 -4.20959e-16 0)
(3 -5.3637e-16 0)
(3 -1.42128e-15 0)
(3 -1.31779e-15 0)
(3 -7.55878e-16 0)
(3 -1.21174e-15 0)
(3 -9.14361e-16 0)
(3 -8.06015e-16 0)
(3 -4.31192e-16 0)
(3 8.50662e-17 0)
(3 -1.76221e-17 0)
(3 -7.12324e-16 0)
(3 -1.02152e-15 0)
(3 -7.55534e-16 0)
(3 -8.9693e-16 0)
(3 -8.48735e-16 0)
(3 -5.71428e-16 0)
(3 -3.9122e-16 0)
(3 -9.10722e-17 0)
(3 -3.25013e-16 0)
(3 -1.58717e-15 0)
(3 -1.94122e-15 0)
(3 -1.44761e-15 0)
(3 -2.58314e-16 0)
(3 4.97324e-16 0)
(3 6.1167e-16 0)
(3 1.14733e-15 0)
(3 1.55443e-15 0)
(3 1.95086e-15 0)
(3 2.48433e-15 0)
(3 2.426e-15 0)
(3 1.72962e-15 0)
(3 1.59741e-15 0)
(3 2.07837e-15 0)
(3 1.53676e-15 0)
(3 4.28574e-17 0)
(3 -5.55415e-16 0)
(3 -5.16505e-17 0)
(3 -3.34246e-16 0)
(3 -5.20355e-16 0)
(3 -6.9113e-16 0)
(3 -8.82794e-16 0)
(3 -1.13708e-15 0)
(3 -9.35444e-16 0)
(3 -9.18337e-16 0)
(3 -9.40038e-16 0)
(3 3.57782e-17 0)
(3 7.74618e-17 0)
(3 -8.03431e-17 0)
(3 3.16236e-17 0)
(3 -1.4616e-16 0)
(3 -3.06683e-16 0)
(3 -1.69292e-16 0)
(3 4.31759e-16 0)
(3 3.67076e-16 0)
(3 8.29559e-16 0)
(3 1.02484e-15 0)