0.601944 	0.000521833 	-2.11064e-19 	2.96597 	0.00977649 	0
0.605831 	0.0015635 	-9.0851e-19 	2.92565 	0.0251675 	0
0.609719 	0.00260517 	-3.57107e-18 	2.88859 	0.0317718 	0
0.613606 	0.00364683 	-4.76844e-18 	2.84458 	0.0933101 	0
0.617494 	0.0046885 	-9.27135e-18 	2.80434 	0.158451 	0
0.621382 	0.00573017 	-1.29902e-17 	2.77005 	0.170372 	0
0.625269 	0.00677183 	-7.95726e-18 	2.74759 	0.189461 	0
0.629157 	0.0078135 	-2.79578e-18 	2.70187 	0.276167 	0
0.633044 	0.00885517 	-2.79129e-18 	2.67076 	0.346295 	0
0.636932 	0.00989683 	-5.54787e-18 	2.65204 	0.352125 	0
0.640819 	0.0109385 	-1.10238e-17 	2.62501 	0.394813 	0
0.644707 	0.0119802 	-1.39159e-17 	2.58758 	0.451008 	0
0.648594 	0.0130218 	-1.06871e-17 	2.58452 	0.482088 	0
0.652482 	0.0140635 	-9.07068e-18 	2.55215 	0.5288 	0
0.65637 	0.0151052 	-1.09672e-17 	2.52926 	0.547596 	0
0.660257 	0.0161468 	-8.94176e-18 	2.5208 	0.584005 	0
0.664145 	0.0171885 	-7.60887e-18 	2.50588 	0.626283 	0
0.668032 	0.0182302 	-8.35561e-18 	2.48688 	0.657484 	0
0.67192 	0.0192718 	-9.33207e-18 	2.47778 	0.674147 	0
0.675807 	0.0203135 	-9.56119e-18 	2.48664 	0.690681 	0
0.679695 	0.0213552 	-8.43176e-18 	2.50084 	0.715325 	0
0.683582 	0.0223968 	-9.10752e-18 	2.50753 	0.72258 	0
0.68747 	0.0234385 	-4.62621e-18 	2.51363 	0.720005 	0
0.691357 	0.0244802 	-4.20743e-18 	2.51963 	0.715655 	0
0.695245 	0.0255218 	-9.9205e-18 	2.527 	0.714685 	0
0.699133 	0.0265635 	-1.25597e-17 	2.53385 	0.713142 	0
0.70302 	0.0276052 	-1.48339e-17 	2.53912 	0.711594 	0
0.706908 	0.0286468 	-1.94282e-17 	2.54192 	0.708167 	0
0.710795 	0.0296885 	-2.60621e-17 	2.54 	0.699513 	0
0.714683 	0.0307302 	-2.93812e-17 	2.54081 	0.694305 	0
0.71857 	0.0317718 	-3.17521e-17 	2.54343 	0.692376 	0
0.722458 	0.0328135 	-3.29876e-17 	2.54684 	0.689672 	0
0.726345 	0.0338552 	-3.03491e-17 	2.55022 	0.682552 	0
0.730233 	0.0348968 	-2.53642e-17 	2.55341 	0.675752 	0
0.734121 	0.0359385 	-2.21331e-17 	2.55449 	0.675196 	0
0.738008 	0.0369802 	-2.14562e-17 	2.55358 	0.676355 	0
0.741896 	0.0380218 	-2.33984e-17 	2.54992 	0.678193 	0
0.745783 	0.0390635 	-2.71343e-17 	2.54734 	0.678122 	0
0.749671 	0.0401052 	-3.32764e-17 	2.54645 	0.677822 	0
0.753558 	0.0411468 	-3.61318e-17 	2.54818 	0.678786 	0
0.757446 	0.0421885 	-3.59704e-17 	2.55321 	0.679619 	0
0.761333 	0.0432302 	-3.7655e-17 	2.55662 	0.679538 	0
0.765221 	0.0442718 	-3.74383e-17 	2.5568 	0.679782 	0
0.769109 	0.0453135 	-3.79921e-17 	2.55571 	0.679938 	0
0.772996 	0.0463552 	-3.90463e-17 	2.55208 	0.680057 	0
0.776884 	0.0473968 	-4.15738e-17 	2.54902 	0.680594 	0
0.780771 	0.0484385 	-4.49893e-17 	2.54802 	0.680773 	0
0.784659 	0.0494802 	-4.83413e-17 	2.54746 	0.680774 	0
0.788546 	0.0505218 	-4.64921e-17 	2.55024 	0.680925 	0
0.792434 	0.0515635 	-4.24447e-17 	2.55429 	0.681011 	0
0.796321 	0.0526052 	-4.27937e-17 	2.55501 	0.680959 	0
0.800209 	0.0536468 	-3.77669e-17 	2.55497 	0.680899 	0
0.804096 	0.0546885 	-3.29957e-17 	2.55413 	0.681309 	0
0.807984 	0.0557302 	-3.495e-17 	2.55135 	0.682777 	0
0.811872 	0.0567718 	-3.69948e-17 	2.55006 	0.684047 	0
0.815759 	0.0578135 	-3.4678e-17 	2.55011 	0.684284 	0
0.819647 	0.0588552 	-2.99654e-17 	2.55096 	0.684536 	0
0.823534 	0.0598968 	-2.83769e-17 	2.55352 	0.684428 	0
0.827422 	0.0609385 	-2.84494e-17 	2.55589 	0.684246 	0
0.831309 	0.0619802 	-2.98488e-17 	2.55639 	0.684259 	0
0.835197 	0.0630218 	-3.20474e-17 	2.55654 	0.684286 	0
0.839084 	0.0640635 	-3.21968e-17 	2.55519 	0.68403 	0
0.842972 	0.0651052 	-2.96856e-17 	2.55314 	0.68398 	0
0.84686 	0.0661468 	-2.77717e-17 	2.55276 	0.684334 	0
0.850747 	0.0671885 	-2.44926e-17 	2.5528 	0.684602 	0
0.854635 	0.0682302 	-2.16015e-17 	2.55333 	0.684908 	0
0.858522 	0.0692718 	-2.30819e-17 	2.55483 	0.684689 	0
0.86241 	0.0703135 	-2.69341e-17 	2.55623 	0.684163 	0
0.866297 	0.0713552 	-2.75977e-17 	2.55658 	0.683962 	0
0.870185 	0.0723968 	-2.63977e-17 	2.5568 	0.683942 	0
0.874072 	0.0734385 	-2.74484e-17 	2.55659 	0.684091 	0
0.87796 	0.0744802 	-2.77799e-17 	2.55568 	0.684404 	0
0.881848 	0.0755218 	-2.96896e-17 	2.55499 	0.68477 	0
0.885735 	0.0765635 	-3.38485e-17 	2.55488 	0.684995 	0
0.889623 	0.0776052 	-3.66324e-17 	2.55491 	0.685112 	0
0.89351 	0.0786468 	-3.64437e-17 	2.55529 	0.685085 	0
0.897398 	0.0796885 	-3.12676e-17 	2.55613 	0.684778 	0
0.901285 	0.0807302 	-2.89432e-17 	2.55684 	0.684487 	0
0.905173 	0.0817718 	-2.61336e-17 	2.55718 	0.684353 	0
0.90906 	0.0828135 	-2.12306e-17 	2.55737 	0.684371 	0
0.912948 	0.0838552 	-2.33548e-17 	2.5575 	0.684509 	0
0.916835 	0.0848968 	-2.20063e-17 	2.55705 	0.684764 	0
0.920723 	0.0859385 	-1.99975e-17 	2.5564 	0.685106 	0
0.924611 	0.0869802 	-2.52522e-17 	2.55599 	0.685377 	0
0.928498 	0.0880218 	-2.45606e-17 	2.55589 	0.68545 	0
0.932386 	0.0890635 	-1.79406e-17 	2.55599 	0.685358 	0
0.936273 	0.0901052 	-1.5022e-17 	2.55684 	0.685124 	0
0.940161 	0.0911468 	-1.79184e-17 	2.55799 	0.684835 	0
0.944048 	0.0921885 	-2.12694e-17 	2.5585 	0.684718 	0
0.947936 	0.0932302 	-2.22457e-17 	2.55862 	0.684719 	0
0.951823 	0.0942718 	-2.26841e-17 	2.55854 	0.684803 	0
0.955711 	0.0953135 	-2.55034e-17 	2.55756 	0.685025 	0
0.959599 	0.0963552 	-2.85961e-17 	2.55627 	0.685425 	0
0.963486 	0.0973968 	-2.56071e-17 	2.55587 	0.685617 	0
0.967374 	0.0984385 	-2.45852e-17 	2.55584 	0.685611 	0
0.971261 	0.0994802 	-2.79052e-17 	2.55652 	0.685455 	0
0.975149 	0.100522 	-3.03608e-17 	2.55823 	0.685099 	0
0.979036 	0.101564 	-3.47122e-17 	2.55927 	0.684799 	0
0.982924 	0.102605 	-3.5123e-17 	2.55945 	0.684771 	0
0.986811 	0.103647 	-3.04795e-17 	2.55944 	0.684823 	0
0.990699 	0.104688 	-2.76531e-17 	2.55852 	0.684978 	0
0.994587 	0.10573 	-2.5501e-17 	2.55685 	0.685421 	0
0.998474 	0.106772 	-2.53275e-17 	2.55621 	0.685783 	0
1.00236 	0.107814 	-2.33909e-17 	2.55619 	0.685863 	0
1.00625 	0.108855 	-2.03195e-17 	2.55672 	0.685774 	0
1.01014 	0.109897 	-2.04074e-17 	2.55847 	0.685403 	0
1.01402 	0.110939 	-1.90215e-17 	2.55983 	0.684975 	0
1.01791 	0.11198 	-1.90298e-17 	2.56004 	0.684877 	0
1.0218 	0.113022 	-2.04498e-17 	2.56004 	0.684867 	0
1.02569 	0.114063 	-2.28852e-17 	2.55915 	0.684947 	0
1.02957 	0.115105 	-2.71564e-17 	2.55745 	0.685359 	0
1.03346 	0.116147 	-3.22698e-17 	2.55662 	0.685843 	0
1.03735 	0.117188 	-3.43867e-17 	2.55655 	0.685996 	0
1.04124 	0.11823 	-3.05486e-17 	2.55691 	0.686034 	0
1.04512 	0.119272 	-2.68932e-17 	2.55838 	0.685759 	0
1.04901 	0.120314 	-2.62569e-17 	2.55988 	0.685232 	0
1.0529 	0.121355 	-2.70148e-17 	2.56025 	0.684975 	0
1.05679 	0.122397 	-2.80126e-17 	2.56028 	0.684922 	0
1.06067 	0.123439 	-2.9273e-17 	2.55959 	0.684955 	0
1.06456 	0.12448 	-3.11456e-17 	2.55799 	0.685257 	0
1.06845 	0.125522 	-2.9346e-17 	2.55701 	0.685769 	0
1.07234 	0.126563 	-2.70837e-17 	2.55686 	0.686003 	0
1.07623 	0.127605 	-3.03479e-17 	2.55703 	0.68612 	0
1.08011 	0.128647 	-3.32523e-17 	2.55808 	0.685976 	0
1.084 	0.129688 	-3.10963e-17 	2.55965 	0.685507 	0
1.08789 	0.13073 	-2.83999e-17 	2.56031 	0.685112 	0
1.09178 	0.131772 	-2.95217e-17 	2.56042 	0.684991 	0
1.09566 	0.132814 	-3.12349e-17 	2.56013 	0.684948 	0
1.09955 	0.133855 	-3.14293e-17 	2.55894 	0.685098 	0
1.10344 	0.134897 	-2.90741e-17 	2.55777 	0.685576 	0
1.10733 	0.135939 	-2.92426e-17 	2.55738 	0.685958 	0
1.11121 	0.13698 	-2.90209e-17 	2.55734 	0.686113 	0
1.1151 	0.138022 	-2.70034e-17 	2.55774 	0.686127 	0
1.11899 	0.139063 	-3.07344e-17 	2.55898 	0.68583 	0
1.12288 	0.140105 	-3.83376e-17 	2.56001 	0.685345 	0
1.12676 	0.141147 	-3.94172e-17 	2.56029 	0.685102 	0
1.13065 	0.142188 	-3.65232e-17 	2.56033 	0.685047 	0
1.13454 	0.14323 	-3.81643e-17 	2.55979 	0.68508 	0
1.13843 	0.144272 	-4.21165e-17 	2.55863 	0.685371 	0
1.14231 	0.145314 	-4.21646e-17 	2.55789 	0.685845 	0
1.1462 	0.146355 	-3.92712e-17 	2.5577 	0.686101 	0
1.15009 	0.147397 	-4.38146e-17 	2.55769 	0.68618 	0
1.15398 	0.148439 	-4.97395e-17 	2.55825 	0.686054 	0
1.15786 	0.14948 	-5.0357e-17 	2.55943 	0.685651 	0
1.16175 	0.150522 	-5.13114e-17 	2.56013 	0.685219 	0
1.16564 	0.151563 	-5.06153e-17 	2.56026 	0.685087 	0
1.16953 	0.152605 	-4.66303e-17 	2.56017 	0.685041 	0
1.17341 	0.153647 	-4.6004e-17 	2.55943 	0.685117 	0
1.1773 	0.154688 	-4.82805e-17 	2.55839 	0.685496 	0
1.18119 	0.15573 	-4.33577e-17 	2.55789 	0.685953 	0
1.18508 	0.156772 	-4.0057e-17 	2.5578 	0.686143 	0
1.18896 	0.157814 	-4.50535e-17 	2.55791 	0.686186 	0
1.19285 	0.158855 	-4.81453e-17 	2.55873 	0.685994 	0
1.19674 	0.159897 	-5.29177e-17 	2.55986 	0.685556 	0
1.20063 	0.160939 	-5.76497e-17 	2.56035 	0.685231 	0
1.20451 	0.16198 	-5.79006e-17 	2.56045 	0.685156 	0
1.2084 	0.163022 	-5.63675e-17 	2.56024 	0.685166 	0
1.21229 	0.164063 	-5.17715e-17 	2.55932 	0.685338 	0
1.21618 	0.165105 	-5.04005e-17 	2.55837 	0.685795 	0
1.22006 	0.166147 	-4.88787e-17 	2.55804 	0.686161 	0
1.22395 	0.167188 	-4.71601e-17 	2.558 	0.686278 	0
1.22784 	0.16823 	-4.69095e-17 	2.55826 	0.686261 	0
1.23173 	0.169272 	-4.26625e-17 	2.55929 	0.686021 	0
1.23561 	0.170314 	-3.83285e-17 	2.56025 	0.685554 	0
1.2395 	0.171355 	-3.76492e-17 	2.56053 	0.685294 	0
1.24339 	0.172397 	-3.83784e-17 	2.56059 	0.685223 	0
1.24728 	0.173439 	-3.90578e-17 	2.56013 	0.685246 	0
1.25116 	0.17448 	-3.74666e-17 	2.5591 	0.685499 	0
1.25505 	0.175522 	-3.95349e-17 	2.55841 	0.685968 	0
1.25894 	0.176563 	-4.4273e-17 	2.55822 	0.686237 	0
1.26283 	0.177605 	-4.23608e-17 	2.55819 	0.686321 	0
1.26672 	0.178647 	-3.70077e-17 	2.55862 	0.686229 	0
1.2706 	0.179688 	-3.38669e-17 	2.55966 	0.68591 	0
1.27449 	0.18073 	-3.58711e-17 	2.56035 	0.685471 	0
1.27838 	0.181772 	-3.77285e-17 	2.5605 	0.685284 	0
1.28227 	0.182814 	-3.79501e-17 	2.56049 	0.685216 	0
1.28615 	0.183855 	-3.48843e-17 	2.55989 	0.685277 	0
1.29004 	0.184897 	-2.70589e-17 	2.559 	0.685631 	0
1.29393 	0.185939 	-2.29459e-17 	2.55859 	0.686076 	0
1.29782 	0.18698 	-2.09381e-17 	2.55851 	0.686271 	0
1.3017 	0.188022 	-1.98576e-17 	2.55857 	0.686355 	0
1.30559 	0.189063 	-1.8255e-17 	2.55918 	0.686257 	0
1.30948 	0.190105 	-1.59689e-17 	2.56009 	0.685889 	0
1.31337 	0.191147 	-1.25394e-17 	2.56054 	0.685501 	0
1.31725 	0.192188 	-9.866e-18 	2.56064 	0.685371 	0
1.32114 	0.19323 	-9.21107e-18 	2.56052 	0.685307 	0
1.32503 	0.194272 	-8.52396e-18 	2.55981 	0.68539 	0
1.32892 	0.195314 	-1.39221e-17 	2.55901 	0.685733 	0
1.3328 	0.196355 	-1.87964e-17 	2.55866 	0.686094 	0
1.33669 	0.197397 	-2.48883e-17 	2.55859 	0.686301 	0
1.34058 	0.198439 	-2.81905e-17 	2.55864 	0.686329 	0
