0.003125 	0.999999 	9.71481e-18 	3 	-3.21208e-17 	0
0.009375 	0.999999 	9.71481e-18 	3 	-6.41392e-17 	0
0.015625 	0.999999 	1.17965e-17 	3 	-1.10946e-16 	0
0.021875 	0.999999 	1.52659e-17 	3 	-1.98853e-16 	0
0.028125 	0.999999 	1.83884e-17 	3 	-2.97943e-16 	0
0.034375 	0.999999 	2.35926e-17 	3 	-1.557e-16 	0
0.040625 	0.999999 	2.7062e-17 	3 	-8.6003e-17 	0
0.046875 	0.999999 	2.84498e-17 	3 	-1.00517e-16 	0
0.053125 	0.999999 	3.12254e-17 	3 	-9.56073e-17 	0
0.059375 	0.999999 	3.12254e-17 	3 	-6.79513e-16 	0
0.065625 	0.999999 	2.98376e-17 	3 	-5.57088e-16 	0
0.071875 	0.999999 	2.98376e-17 	3 	-3.88093e-16 	0
0.078125 	0.999999 	3.12254e-17 	3 	-2.53696e-16 	0
0.084375 	0.999999 	3.12254e-17 	3 	-3.36306e-16 	0
0.090625 	0.999999 	3.3307e-17 	3 	6.6492e-17 	0
0.096875 	0.999999 	3.67765e-17 	3 	4.60858e-16 	0
0.103125 	0.999999 	3.67765e-17 	3 	9.78538e-16 	0
0.109375 	0.999999 	3.85112e-17 	3 	9.27221e-16 	0
0.115625 	0.999999 	3.88582e-17 	3 	5.11629e-16 	0
0.121875 	0.999999 	3.74704e-17 	3 	1.48621e-15 	0
0.128125 	0.999999 	3.74704e-17 	3 	1.3348e-15 	0
0.134375 	0.999999 	3.74704e-17 	3 	9.44491e-16 	0
0.140625 	0.999999 	4.23276e-17 	3 	2.15563e-16 	0
0.146875 	0.999999 	4.71848e-17 	3 	-3.2009e-16 	0
0.153125 	0.999999 	4.71848e-17 	3 	-7.00631e-16 	0
0.159375 	0.999999 	4.71848e-17 	3 	-3.75337e-16 	0
0.165625 	0.999999 	4.71848e-17 	3 	4.77062e-16 	0
0.171875 	0.999999 	4.57971e-17 	3 	1.76217e-15 	0
0.178125 	0.999999 	4.57971e-17 	3 	1.77353e-15 	0
0.184375 	0.999999 	4.71848e-17 	3 	1.3929e-15 	0
0.190625 	0.999999 	4.71848e-17 	3 	1.15177e-15 	0
0.196875 	0.999999 	4.71848e-17 	3 	-1.42159e-16 	0
0.203125 	0.999999 	4.85726e-17 	3 	-3.32028e-16 	0
0.209375 	0.999999 	5.30829e-17 	3 	-1.39712e-16 	0
0.215625 	0.999999 	5.62054e-17 	3 	8.83458e-17 	0
0.221875 	0.999999 	5.62054e-17 	3 	4.76539e-16 	0
0.228125 	0.999999 	5.62054e-17 	3 	9.19045e-16 	0
0.234375 	0.999999 	5.62054e-17 	3 	7.75991e-16 	0
0.240625 	0.999999 	5.62054e-17 	3 	1.44274e-16 	0
0.246875 	0.999999 	5.62054e-17 	3 	5.081e-16 	0
0.253125 	0.999999 	5.62054e-17 	3 	1.3886e-15 	0
0.259375 	0.999999 	5.62054e-17 	3 	1.34964e-15 	0
0.265625 	0.999999 	5.62054e-17 	3 	1.46533e-15 	0
0.271875 	0.999999 	5.62054e-17 	3 	1.81408e-15 	0
0.278125 	0.999999 	5.62054e-17 	3 	2.31222e-15 	0
0.284375 	0.999999 	5.62054e-17 	3 	2.12222e-15 	0
0.290625 	0.999999 	5.62054e-17 	3 	1.42944e-15 	0
0.296875 	0.999999 	5.62054e-17 	3 	5.37866e-16 	0
0.303125 	0.999999 	5.62054e-17 	3 	-2.76969e-16 	0
0.309375 	0.999999 	5.48176e-17 	3 	-6.58787e-16 	0
0.315625 	0.999999 	5.48176e-17 	3 	-8.10968e-16 	0
0.321875 	0.999999 	5.62054e-17 	3 	-8.39786e-16 	0
0.328125 	0.999999 	5.96748e-17 	3 	-9.28022e-17 	0
0.334375 	0.999999 	6.17565e-17 	3 	5.67404e-16 	0
0.340625 	0.999999 	6.03687e-17 	3 	1.52318e-15 	0
0.346875 	0.999999 	6.03687e-17 	3 	2.20346e-15 	0
0.353125 	0.999999 	6.03687e-17 	3 	1.70226e-15 	0
0.359375 	0.999999 	6.03687e-17 	3 	1.26799e-15 	0
0.365625 	0.999999 	6.38382e-17 	3 	1.07865e-15 	0
0.371875 	0.999999 	6.73076e-17 	3 	6.31666e-16 	0
0.378125 	0.999999 	6.90423e-17 	3 	-2.68807e-16 	0
0.384375 	0.999999 	7.42465e-17 	3 	-1.21675e-16 	0
0.390625 	0.999999 	7.94507e-17 	3 	9.9131e-17 	0
0.396875 	0.999999 	7.97976e-17 	3 	9.93599e-17 	0
0.403125 	0.999999 	7.84099e-17 	3 	-2.12733e-17 	0
0.409375 	0.999999 	7.84099e-17 	3 	-2.74436e-17 	0
0.415625 	0.999999 	7.84099e-17 	3 	-3.78845e-16 	0
0.421875 	0.999999 	7.84099e-17 	3 	-9.75371e-16 	0
0.428125 	0.999999 	7.84099e-17 	3 	-1.08602e-15 	0
0.434375 	0.999999 	7.84099e-17 	3 	-8.48882e-16 	0
0.440625 	0.999999 	7.84099e-17 	3 	-1.27512e-15 	0
0.446875 	0.999999 	7.84099e-17 	3 	-1.58184e-15 	0
0.453125 	0.999999 	8.04915e-17 	3 	-1.5454e-15 	0
0.459375 	0.999999 	8.25732e-17 	3 	-1.61592e-15 	0
0.465625 	0.999999 	8.25732e-17 	3 	-1.36883e-15 	0
0.471875 	0.999999 	8.25732e-17 	3 	-8.77084e-16 	0
0.478125 	0.999999 	8.3961e-17 	3 	8.79288e-17 	0
0.484375 	0.999999 	8.53488e-17 	3 	1.09457e-15 	0
0.490625 	0.999999 	8.53488e-17 	3 	1.0428e-15 	0
0.496875 	0.999999 	8.53488e-17 	3 	9.21815e-16 	0
0.503125 	0.999999 	8.88182e-17 	3 	1.27355e-15 	0
0.509375 	0.999999 	9.22876e-17 	3 	1.29743e-15 	0
0.515625 	0.999999 	9.22876e-17 	3 	1.07066e-15 	0
0.521875 	0.999999 	9.22876e-17 	3 	1.29279e-15 	0
0.528125 	0.999999 	9.22876e-17 	3 	1.08975e-15 	0
0.534375 	0.999999 	9.08999e-17 	3 	4.77638e-16 	0
0.540625 	0.999999 	8.95121e-17 	3 	5.43313e-16 	0
0.546875 	0.999999 	8.95121e-17 	3 	4.56429e-16 	0
0.553125 	0.999999 	9.12468e-17 	3 	-1.40566e-16 	0
0.559375 	0.999999 	9.29815e-17 	3 	-4.30707e-16 	0
0.565625 	0.999999 	9.50632e-17 	3 	-4.67358e-16 	0
0.571875 	0.999999 	9.88796e-17 	3 	-2.90165e-17 	0
0.578125 	0.999999 	1.00614e-16 	3 	2.74928e-16 	0
0.584375 	0.999999 	1.04084e-16 	3 	4.44461e-16 	0
0.590625 	0.999999 	1.07553e-16 	3 	4.37918e-16 	0
