/*--------------------------------*- C++ -*----------------------------------*\
  =========                 |
  \\      /  F ield         | OpenFOAM: The Open Source CFD Toolbox
   \\    /   O peration     | Website:  https://openfoam.org
    \\  /    A nd           | Version:  7
     \\/     M anipulation  |
\*---------------------------------------------------------------------------*/
FoamFile
{
    version     2.0;
    format      ascii;
    class       volScalarField;
    location    "1.3";
    object      p;
}
// * * * * * * * * * * * * * * * * * * * * * * * * * * * * * * * * * * * * * //

dimensions      [1 -1 -2 0 0 0 0];

internalField   nonuniform List<scalar> 
18432
(
1
1
1
1
1
1
1
1
1
1
1
1
1
1
1
1
1
1
1
1
1
1
1
1
1
1
1
1
1
1
1
1
1
1
1
1
1
1
1
1
1
1
1
1
1
1
1
1
1
1
1
1
1
1
1
1
1
1
1
1
1
1
1
1
1
1
1
1
1
1
1
1
1
1
1
1
1
1
1
1
1
1
1
1
1
1
1
1
1
1
1
1
1
1
1
1
1
1
1
1
1
1
1
1
1
1
1
1
1
1
1
1
1
1
1
1
1
1
1
1
1
1
1
1
1
1
1
1
1
1
1
1
1
1
1
1
1
1
1
1
1
1
1
1
1
1
1
1
1
1
1
1
1
1
1
1
1
1
1
1
1
1
1
1
1
1
1
1
1
1
1
1
1
1
1
1
1
1
1
1
1
1
1
1
1
1
1
1
1
1
1
1
1
1
1
1
1
1
1
1
1
1
1
1
1
1
1
1
1
1
1
1
1
1
1
1
1
1
1
1
1
1
1
1
1
1
1
1
1
1
1
1
1
1
1
1
1
1
1
1
1
1
1
1
1
1
1
1
1
1
1
1
1
1
1
1
1
1
1
1
1
1
1
1
1
1
1
1
1
1
1
1
1
1
1
1
1
1
1
1
1
1
1
1
1
1
1
1
1
1
1
1
1
1
1
1
1
1
1
1
1
1
1
1
1
1
1
1
1
1
1
1
1
1
1
1
1
1
1
1
1
1
1
1
1
1
1
1
1
1
1
1
1
1
1
1
1
1
1
1
1
1
1
1
1
1
1
1
1
1
1
1
1
1
1
1
1
1
1
1
1
1
1
1
1
1
1
1
1
1
1
1
1
1
1
1
1
1
1
1
1
1
1
1
1
1
1
1
1
1
1
1
1
1
1
1
1
1
1
1
1
1
1
1
1
1
1
1
1
1
1
1
1
1
1
1
1
1
1
1
1
1
1
1
1
1
1
1
1
1
1
1
1
1
1
1
1
1
1
1
1
1
1
1
1
1
1
1
1
1
1
1
1
1
1
1
1
1
1
1
1
1
1
1
1
1
1
1
1
1
1
1
1
1
1
1
1
1
1
1
1
1
1
1
1
1
1
1
1
1
1
1
1
1
1
1
1
1
1
1
1
1
1
1
1
1
1
1
1
1
1
1
1
1
1
1
1
1
1
1
1
1
1
1
1
1
1
1
1
1
1
1
1
1
1
1
1
1
1
1
1
1
1
1
1
1
1
1
1
1
1
1
1
1
1
1
1
1
1
1
1
1
1
1
1
1
1
1
1
1
1
1
1
1
1
1
1
1
1
1
1
1
1
1
1
1
1
1
1
1
1
1
1
1
1
1
1
1
1
1
1
1
1
1
1
1
1
1
1
1
1
1
1
1
1
1
1
1
1
1
1
1
1
1
1
1
1
1
1
1
1
1
1
1
1
1
1
1
1
1
1
1
1
1
1
1
1
1
1
1
1
1
1
1
1
1
1
1
1
1
1
1
1
1
1
1
1
1
1
1
1
1
1
1
1
1
1
1
1
1
1
1
1
1
1
1
1
1
1
1
1
1
1
1
1
1
1
1
1
1
1
1
1
1
1
1
1
1
1
1
1
1
1
1
1
1
1
1
1
1
1
1
1
1
1
1
1
1
1
1
1
1
1
1
1
1
1
1
1
1
1
1
1
1
1
1
1
1
1
1
1
1
1
1
1
1
1
1
1
1
1
1
1
1
1
1
1
1
1
1
1
1
1
1
1
1
1
1
1
1
1
1
1
1
1
1
1
1
1
1
1
1
1
1
1
1
1
1
1
1
1
1
1
1
1
1
1
1
1
1
1
1
1
1
1
1
1
1
1
1
1
1
1
1
1
1
1
1
1
1
1
1
1
1
1
1
1
1
1
1
1
1
1
1
1
1
1
1
1
1
1
1
1
1
1
1
1
1
1
1
1
1
1
1
1
1
1
1
1
1
1
1
1
1
1
1
1
1
1
1
1
1
1
1
1
1
1
1
1
1
1
1
1
1
1
1
1
1
1
1
1
1
1
1
1
1
1
1
1
1
1
1
1
1
1
1
1
1
1
1
1
1
1
1
1
1
1
1
1
1
1
1
1
1
1
1
1
1
1
1
1
1
1
1
1
1
1
1
1
1
1
1
1
1
1
1
1
1
1
1
1
1
1
1
1
1
1
1
1
1
1
1
1
1
1
1
1
1
1
1
1
1
1
1
1
1
1
1
1
1
1
1
1
1
1
1
1
1
1
1
1
1
1
1
1
1
1
1
1
1
1
1
1
1
1
1
1
1
1
1
1
1
1
1
1
1
1
1
1
1
1
1
1
1
1
1
1
1
1
1
1
1
1
1
1
1
1
1
1
1
1
1
1
1
1
1
1
1
1
1
1
1
1
1
1
1
1
1
1
1
1
1
1
1
1
1
1
1
1
1
1
1
1
1
1
1
1
1
1
1
1
1
1
1
1
1
1
1
1
1
1
1
1
1
1
1
1
1
1
1
1
1
1
1
1
1
1
1
1
1
1
1
1
1
1
1
1
1
1
1
1
1
1
1
1
1
1
1
1
1
1
1
1
1
1
1
1
1
1
1
1
1
1
1
1
1
1
1
1
1
1
1
1
1
1
1
1
1
1
1
1
1
1
1
1
1
1
1
1
1
1
1
1
1
1
1
1
1
1
1
1
1
1
1
1
1
1
1
1
1
1
1
1
1
1
1
1
1
1
1
1
1
1
1
1
1
1
1
1
1
1
1
1
1
1
1
1
1
1
1
1
1
1
1
1
1
1
1
1
1
1
1
1
1
1
1
1
1
1
1
1
1
1
1
1
1
1
1
1
1
1
1
1
1
1
1
1
1
1
1
1
1
1
1
1
1
1
1
1
1
1
1
1
1
1
1
1
1
1
1
1
1
1
1
1
1
1
1
1
1
1
1
1
1
1
1
1
1
1
1
1
1
1
1
1
1
1
1
1
1
1
1
1
1
1
1
1
1
1
1
1
1
1
1
1
1
1
1
1
1
1
1
1
1
1
1
1
1
1
1
1
1
1
1
1
1
1
1
1
1
1
1
1
1
1
1
1
1
1
1
1
1
1
1
1
1
1
1
1
1
1
1
1
1
1
1
1
1
1
1
1
1
1
1
1
1
1
1
1
1
1
1
1
1
1
1
1
1
1
1
1
1
1
1
1
1
1
1
1
1
1
1
1
1
1
1
1
1
1
1
1
1
1
1
1
1
1
1
1
1
1
1
1
1
1
1
1
1
1
1
1
1
1
1
1
1
1
1
1
1
1
1
1
1
1
1
1
1
1
1
1
1
1
1
1
1
1
1
1
1
1
1
1
1
1
1
1
1
1
1
1
1
1
1
1
1
1
1
1
1
1
1
1
1
1
1
1
1
1
1
1
1
1
1
1
1
1
1
1
1
1
1
1
1
1
1
1
1
1
1
1
1
1
1
1
1
1
1
1
1
1
1
1
1
1
1
1
1
1
1
1
1
1
1
1
1
1
1
1
1
1
1
1
1
1
1
1
1
1
1
1
1
1
1
1
1
1
1
1
1
1
1
1
1
1
1
1
1
1
1
1
1
1
1
1
1
1
1
1
1
1
1
1
1
1
1
1
1
1
1
1
1
1
1
1
1
1
1
1
1
1
1
1
1
1
1
1
1
1
1
1
1
1
1
1
1
1
1
1
1
1
1
1
1
1
1
1
1
1
1
1
1
1
1
1
1
1
1
1
1
1
1
1
1
1
1
1
1
1
1
1
1
1
1
1
1
1
1
1
1
1
1
1
1
1
1
1
1
1
1
1
1
1
1
1
1
1
1
1
1
1
1
1
1
1
1
1
1
1
1
1
1
1
1
1
1
1
1
1
1
1
1
1
1
1
1
1
1
1
1
1
1
1
1
1
1
1
1
1
1
1
1
1
1
1
1
1
1
1
1
1
1
1
1
1
1
1
1
1
1
1
1
1
1
1
1
1
1
1
1
1
1
1
1
1
1
1
1
1
1
1
1
1
1
1
1
1
1
1
1
1
1
1
1
1
1
1
1
1
1
1
1
1
1
1
1
1
1
1
1
1
1
1
1
1
1
1
1
1
1
1
1
1
1
1
1
1
1
1
1
1
1
1
1
1
1
1
1
1
1
1
1
1
1
1
1
1
1
1
1
1
1
1
1
1
1
1
1
1
1
1
1
1
1
1
1
1
1
1
1
1
1
1
1
1
1
1
1
1
1
1
1
1
1
1
1
1
1
1
1
1
1
1
1
1
1
1
1
1
1
1
1
1
1
1
1
1
1
1
1
1
1
1
1
1
1
1
1
1
1
1
1
1
1
1
1
1
1
1
1
1
1
1
1
1
1
1
1
1
1
1
1
1
1
1
1
1
1
1
1
1
1
1
1
1
1
1
1
1
1
1
1
1
1
1
1
1
1
1
1
1
1
1
1
1
1
1
1
1
1
1
1
1
1
1
1
1
1
1
1
1
1
1
1
1
1
1
1
1
1
1
1
1
1
1
1
1
1
1
1
1
1
1
1
1
1
1
1
1
1
1
1
1
1
1
1
1
1
1
1
1
1
1
1
1
1
1
1
1
1
1
1
1
1
1
1
1
1
1
1
1
1
1
1
1
1
1
1
1
1
1
1
1
1
1
1
1
1
1
1
1
1
1
1
1
1
1
1
1
1
1
1
1
1
1
1
1
1
1
1
1
1
1
1
1
1
1
1
1
1
1
1
1
1
1
1
1
1
1
1
1
1
1
1
1
1
1
1
1
1
1
1
1
1
1
1
1
1
1
1
1
1
1
1
1
1
1
1
1
1
1
1
1
1
1
1
1
1
1
1
1
1
1
1
1
1
1
1
1
1
1
1
1
1
1
1
1
1
1
1
1
1
1
1
1
1
1
1
1
1
1
1
1
1
1
1
1
1
1
1
1
1
1
1
1
1
1
1
1
1
1
1
1
1
1
1
1
1
1
1
1
1
1
1
1
1
1
1
1
1
1
1
1
1
1
1
1
1
1
1
1
1
1
1
1
1
1
1
1
1
1
1
1
1
1
1
1
1
1
1
1
1
1
1
1
1
1
1
1
1
1
1
1
1
1
1
1
1
1
1
1
1
1
1
1
1
1
1
1
1
1
1
1
1
1
1
1
1
1
1
1
1
1
1
1
1
1
1
1
1
1
1
1
1
1
1
1
1
1
1
1
1
1
1
1
1
1
1
1
1
1
1
1
1
1
1
1
1
1
1
1
1
1
1
1
1
1
1
1
1
1
1
1
1
1
1
1
1
1
1
1
1
1
1
1
1
1
1
1
1
1
1
1
1
1
1
1
1
1
1
1
1
1
1
1
1
1
1
1
1
1
1
1
1
1
1
1
1
1
1
1
1
1
1
1
1
1
1
1
1
1
1
1
1
1
1
1
1
1
1
1
1
1
1
1
1
1
1
1
1
1
1
1
1
1
1
1
1
1
1
1
1
1
1
1
1
1
1
1
1
1
1
1
1
1
1
1
1
1
1
1
1
1
1
1
1
1
1
1
1
1
1
1
1
1
1
1
1
1
1
1
1
1
1
1
1
1
1
1
1
1
1
1
1
1
1
1
1
1
1
1
1
1
1
1
1
1
1
1
1
1
1
1
1
1
1
1
1
1
1
1
1
1
1
1
1
1
1
1
1
1
1
1
1
1
1
1
1
1
1
1
1
1
1
1
1
1
1
1
1
1
1
1
1
1
1
1
1
1
1
1
1
1
1
1
1
1
1
1
1
1
1
1
1
1
1
1
1
1
1
1
1
1
1
1
1
1
1
1
1
1
1
1
1
1
1
1
1
1
1
1
1
1
1
1
1
1
1
1
1
1
1
1
1
1
1
1
1
1
1
1
1
1
1
1
1
1
1
1
1
1
1
1
1
1
1
1
1
1
1
1
1
1
1
1
1
1
1
1
1
1
1
1
1
1
1
1
1
1
1
1
1
1
1
1
1
1
1
1
1
1
1
1
1
1
1
1
1
1
1
1
1
1
1
1
1
1
1
1
1
1
1
1
1
1
1
1
1
1
1
1
1
1
1
1
1
1
1
1
1
1
1
1
1
1
1
1
1
1
1
1
1
1
1
1
1
1
1
1
1
1
1
1
1
1
1
1
1
1
1
1
1
1
1
1
1
1
1
1
1
1
1
1
1
1
1
1
1
1
1
1
1
1
1
1
1
1
1
1
1
1
1
1
1
1
1
1
1
1
1
1
1
1
1
1
1
1
1
1
1
1
1
1
1
1
1
1
1
1
1
1
1
1
1
1
1
1
1
1
1
1
1
1
1
1
1
1
1
1
1
1
1
1
1
1
1
1
1
1
1
1
1
1
1
1
1
1
1
1
1
1
1
1
1
1
1
1
1
1
1
1
1
1
1
1
1
1
1
1
1
1
1
1
1
1
1
1
1
1
1
1
1
1
1
1
1
1
1
1
1
1
1
1
1
1
1
1
1
1
1
1
1
1
1
1
1
1
1
1
1
1
1
1
1
1
1
1
1
1
1
1
1
1
1
1
1
1
1
1
1
1
1
1
1
1
1
1
1
1
1
1
1
1
1
1
1
1
1
1
1
1
1
1
1
1
1
1
1
1
1
1
1
1
1
1
1
1
1
1
1
1
1
1
1
1
1
1
1
1
1
1
1
1
1
1
1
1
1
1
1
1
1
1
1
1
1
1
1
1
1
1
1
1
1
1
1
1
1
1
1
1
1
1
1
1
1
1
1
1
1
1
1
1
1
1
1
1
1
1
1
1
1
1
1
1
1
1
1
1
1
1
1
1
1
1
1
1
1
1
1
1
1
1
1
1
1
1
1
1
1
1
1
1
1
1
1
1
1
1
1
1
1
1
1
1
1
1
1
1
1
1
1
1
1
1
1
1
1
1
1
1
1
1.28932
1.75811
2.32125
2.87698
3.57645
4.17221
4.65142
5.11584
5.347
5.25956
4.92486
4.46721
4.08146
3.79524
3.66477
3.5783
3.55686
3.57259
3.60784
3.64754
3.6863
3.70755
3.71868
3.72768
3.73835
3.75003
3.75977
3.76533
3.76936
3.77652
3.78882
3.79845
3.80003
3.79804
3.79243
3.78291
3.77375
3.76863
3.76625
3.76564
3.76541
3.76671
3.76935
3.76978
3.76963
3.76839
3.76607
3.76639
1.00217
1.01401
1.07425
1.20501
1.40816
1.76951
2.21573
2.75412
3.31542
3.73903
3.88914
4.0531
4.0551
3.96256
3.84006
3.78367
3.74617
3.70154
3.6724
3.66779
3.67867
3.70392
3.72953
3.7422
3.74549
3.74697
3.75275
3.75579
3.75712
3.76048
3.76678
3.77386
3.77889
3.78074
3.77958
3.77606
3.77174
3.76974
3.77006
3.77188
3.77502
3.77842
3.7794
3.7789
3.77723
3.77291
3.76721
3.7677
1
0.999977
1.00007
1.00008
1.00129
1.0134
1.06162
1.22138
1.60303
2.35192
3.31258
3.9186
4.31706
4.32535
4.25226
4.11116
3.97001
3.79233
3.67806
3.67477
3.68506
3.70921
3.7415
3.7548
3.75836
3.75656
3.75441
3.75767
3.75969
3.76239
3.76551
3.769
3.76933
3.76779
3.76456
3.76137
3.76017
3.76103
3.76361
3.76839
3.77609
3.78384
3.78667
3.78643
3.78483
3.78031
3.77374
3.77369
1
1
1
1
0.999998
1
1
1.00008
1.00562
1.06885
1.43805
2.11889
3.22859
3.76766
4.03753
4.02195
3.9293
3.89705
3.8466
3.7736
3.76033
3.72884
3.71574
3.71735
3.72732
3.73461
3.74561
3.75957
3.76811
3.77335
3.77784
3.77794
3.77718
3.77457
3.7709
3.76902
3.76695
3.7661
3.76777
3.7718
3.77782
3.78235
3.78326
3.78132
3.77779
3.77194
3.76925
3.77079
1
1
1
1
1
1
1
0.999999
1
0.999921
1.00239
1.04038
1.29852
1.98456
2.84185
3.75354
3.92125
4.00994
3.97952
3.92665
3.81198
3.72607
3.68001
3.66513
3.67257
3.68251
3.69793
3.7207
3.74294
3.76113
3.77579
3.78056
3.7816
3.78034
3.77854
3.77836
3.77743
3.77646
3.77757
3.78087
3.78443
3.7852
3.78333
3.77995
3.77387
3.76716
3.76498
3.76613
1
1
1
1
1
1
1
1
1
0.999997
0.999998
0.999954
1.00076
1.03225
1.2032
1.83533
2.68287
3.48644
3.90329
3.88246
3.86127
3.81639
3.76141
3.72701
3.69563
3.68525
3.6852
3.69783
3.71888
3.73966
3.75723
3.77064
3.77363
3.77399
3.77334
3.77246
3.77027
3.76875
3.77024
3.77384
3.77501
3.77329
3.77075
3.76777
3.76424
3.76213
3.76045
3.76501
1
1
1
1
1
1
1
1
1
1
1
0.999998
0.999998
0.999969
1.00039
1.02051
1.1944
1.66297
2.54334
3.21099
3.76245
3.87895
3.87354
3.82615
3.78341
3.75228
3.72385
3.71212
3.71494
3.72585
3.73827
3.75468
3.76333
3.76749
3.76562
3.76336
3.76222
3.76169
3.7662
3.77186
3.77271
3.77194
3.77083
3.77004
3.76974
3.76954
3.76842
3.77277
1
1
1
1
1
1
1
1
1
1
1
1
1
0.999998
0.999998
0.999971
1.00056
1.01172
1.15604
1.58181
2.42765
3.11597
3.51216
3.75238
3.79043
3.79232
3.7653
3.7438
3.74267
3.74368
3.74606
3.74695
3.7517
3.75727
3.76111
3.76325
3.76459
3.76807
3.77441
3.77905
3.7796
3.77884
3.7763
3.77502
3.77429
3.77396
3.77356
3.77504
1
1
1
1
1
1
1
1
1
1
1
1
1
1
1
0.999998
0.999998
0.99998
1.00047
1.01131
1.11688
1.57678
2.25872
3.13238
3.44846
3.59913
3.66877
3.73874
3.74474
3.72824
3.72279
3.72822
3.73503
3.74582
3.75674
3.76523
3.77219
3.77835
3.784
3.78537
3.78438
3.78322
3.78073
3.77625
3.77313
3.77233
3.77225
3.77288
1
1
1
1
1
1
1
1
1
1
1
1
1
1
1
1
1
0.999998
0.999998
0.999985
1.00028
1.01415
1.10099
1.50877
2.22585
3.01257
3.54101
3.61017
3.68527
3.69063
3.69114
3.70271
3.70965
3.71802
3.73125
3.74589
3.76078
3.77253
3.77739
3.77912
3.7786
3.77869
3.77873
3.77682
3.77415
3.77323
3.77404
3.77432
1
1
1
1
1
1
1
1
1
1
1
1
1
1
1
1
1
1
1
0.999999
0.999999
0.999988
1.00027
1.01101
1.11344
1.45808
2.2259
2.94689
3.50524
3.69257
3.71387
3.72595
3.72928
3.72414
3.73004
3.73854
3.74855
3.76191
3.76959
3.77185
3.77018
3.76937
3.76974
3.76816
3.76639
3.76628
3.76848
3.76979
1
1
1
1
1
1
1
1
1
1
1
1
1
1
1
1
1
1
1
1
1
0.999998
0.999999
0.999988
1.00046
1.00896
1.12699
1.49081
2.25611
2.95083
3.45459
3.68969
3.7487
3.75051
3.76875
3.77064
3.76902
3.77528
3.7823
3.78401
3.78157
3.77804
3.77363
3.76895
3.76782
3.76873
3.76961
3.77073
1
1
1
1
1
1
1
1
1
1
1
1
1
1
1
1
1
1
1
1
1
1
1
0.999998
0.999999
0.999989
1.00084
1.01207
1.12795
1.57245
2.33975
3.07467
3.41374
3.61276
3.72899
3.74808
3.75078
3.76487
3.77328
3.77772
3.77818
3.77538
3.77384
3.77489
3.77668
3.77902
3.7797
3.77883
1
1
1
1
1
1
1
1
1
1
1
1
1
1
1
1
1
1
1
1
1
1
1
1
1
0.999998
0.999999
0.999993
1.00098
1.02104
1.14916
1.67066
2.44873
3.29934
3.53236
3.62018
3.66444
3.71182
3.73287
3.73949
3.74331
3.74963
3.76303
3.77459
3.7782
3.7787
3.77962
3.77851
1
1
1
1
1
1
1
1
1
1
1
1
1
1
1
1
1
1
1
1
1
1
1
1
1
1
1
0.999999
0.999998
1.00001
1.00136
1.03588
1.21388
1.84327
2.67251
3.37117
3.69189
3.71783
3.73303
3.73261
3.73005
3.74009
3.7549
3.76565
3.77085
3.77382
3.77694
3.77657
1
1
1
1
1
1
1
1
1
1
1
1
1
1
1
1
1
1
1
1
1
1
1
1
1
1
1
1
1
1
0.999997
1.00011
1.00305
1.06142
1.34683
2.08728
2.92264
3.48593
3.73228
3.76611
3.77199
3.78831
3.79058
3.79126
3.78826
3.78551
3.78242
3.77991
1
1
1
1
1
1
1
1
1
1
1
1
1
1
1
1
1
1
1
1
1
1
1
1
1
1
1
1
1
1
1
1
0.999996
1.0004
1.00834
1.11774
1.57702
2.4623
3.16665
3.49895
3.69901
3.77091
3.76885
3.78025
3.78858
3.79079
3.7883
3.78338
1
1
1
1
1
1
1
1
1
1
1
1
1
1
1
1
1
1
1
1
1
1
1
1
1
1
1
1
1
1
1
1
0.999999
0.999999
1
1.00154
1.02651
1.23336
1.8995
2.89893
3.49802
3.59876
3.65526
3.71454
3.751
3.76552
3.76767
3.76561
1
1
1
1
1
1
1
1
1
1
1
1
1
1
1
1
1
1
1
1
1
1
1
1
1
1
1
1
1
1
1
1
1
1
1
0.999998
1.00008
1.00583
1.08448
1.50165
2.38974
3.24263
3.6975
3.74755
3.76227
3.76433
3.75678
3.7537
1
1
1
1
1
1
1
1
1
1
1
1
1
1
1
1
1
1
1
1
1
1
1
1
1
1
1
1
1
1
1
1
1
1
1
1
1
1.00001
1.00086
1.02512
1.24523
1.94441
2.90114
3.50013
3.76727
3.80059
3.79733
3.78828
1
1
1
1
1
1
1
1
1
1
1
1
1
1
1
1
1
1
1
1
1
1
1
1
1
1
1
1
1
1
1
1
1
1
1
1
1
1
0.999999
1.00015
1.00618
1.10115
1.61146
2.62397
3.32789
3.55848
3.72263
3.7627
1
1
1
1
1
1
1
1
1
1
1
1
1
1
1
1
1
1
1
1
1
1
1
1
1
1
1
1
1
1
1
1
1
1
1
1
1
1
1
0.999999
1.00001
1.00188
1.03978
1.35413
2.19023
3.23666
3.6244
3.69168
1
1
1
1
1
1
1
1
1
1
1
1
1
1
1
1
1
1
1
1
1
1
1
1
1
1
1
1
1
1
1
1
1
1
1
1
1
1
1
1
1
1
1.00031
1.01716
1.18018
1.92928
2.93135
3.62158
1
1
1
1
1
1
1
1
1
1
1
1
1
1
1
1
1
1
1
1
1
1
1
1
1
1
1
1
1
1
1
1
1
1
1
1
1
1
1
1
1
1
1
1.00012
1.00475
1.1179
1.66926
2.80611
1
1
1
1
1
1
1
1
1
1
1
1
1
1
1
1
1
1
1
1
1
1
1
1
1
1
1
1
1
1
1
1
1
1
1
1
1
1
1
1
1
1
1
1
1.00002
1.00305
1.05938
1.45106
1
1
1
1
1
1
1
1
1
1
1
1
1
1
1
1
1
1
1
1
1
1
1
1
1
1
1
1
1
1
1
1
1
1
1
1
1
1
1
1
1
1
1
1
1
1.00001
1.001
1.01911
1
1
1
1
1
1
1
1
1
1
1
1
1
1
1
1
1
1
1
1
1
1
1
1
1
1
1
1
1
1
1
1
1
1
1
1
1
1
1
1
1
1
1
1
1
1
1.00001
0.999825
1
1
1
1
1
1
1
1
1
1
1
1
1
1
1
1
1
1
1
1
1
1
1
1
1
1
1
1
1
1
1
1
1
1
1
1
1
1
1
1
1
1
1
1
1
1
1
0.999942
1
1
1
1
1
1
1
1
1
1
1
1
1
1
1
1
1
1
1
1
1
1
1
1
1
1
1
1
1
1
1
1
1
1
1
1
1
1
1
1
1
1
1
1
1
1
1
0.999992
1
1
1
1
1
1
1
1
1
1
1
1
1
1
1
1
1
1
1
1
1
1
1
1
1
1
1
1
1
1
1
1
1
1
1
1
1
1
1
1
1
1
1
1
1
1
1
1
1
1
1
1
1
1
1
1
1
1
1
1
1
1
1
1
1
1
1
1
1
1
1
1
1
1
1
1
1
1
1
1
1
1
1
1
1
1
1
1
1
1
1
1
1
1
1
1
1
1
1
1
1
1
1
1
1
1
1
1
1
1
1
1
1
1
1
1
1
1
1
1
1
1
1
1
1
1
1
1
1
1
1
1
1
1
1
1
1
1
1
1
1
1
1
1
1
1
1
1
1
1
1
1
1
1
1
1
1
1
1
1
1
1
1
1
1
1
1
1
1
1
1
1
1
1
1
1
1
1
1
1
1
1
1
1
1
1
1
1
1
1
1
1
1
1
1
1
1
1
1
1
1
1
1
1
1
1
1
1
1
1
1
1
1
1
1
1
1
1
1
1
1
1
1
1
1
1
1
1
1
1
1
1
1
1
1
1
1
1
1
1
1
1
1
1
1
1
1
1
1
1
1
1
1
1
1
1
1
1
1
1
1
1
1
1
1
1
1
1
1
1
1
1
1
1
1
1
1
1
1
1
1
1
1
1
1
1
1
1
1
1
1
1
1
1
1
1
1
1
1
1
1
1
1
1
1
1
1
1
1
1
1
1
1
1
1
1
1
1
1
1
1
1
1
1
1
1
1
1
1
1
1
1
1
1
1
0.999992
1
1
1
1
1
1
1
1
1
1
1
1
1
1
1
1
1
1
1
1
1
1
1
1
1
1
1
1
1
1
1
1
1
1
1
1
1
1
1
1
1
1
1
1
1
1
1
0.999942
1
1
1
1
1
1
1
1
1
1
1
1
1
1
1
1
1
1
1
1
1
1
1
1
1
1
1
1
1
1
1
1
1
1
1
1
1
1
1
1
1
1
1
1
1
1
1.00001
0.999825
1
1
1
1
1
1
1
1
1
1
1
1
1
1
1
1
1
1
1
1
1
1
1
1
1
1
1
1
1
1
1
1
1
1
1
1
1
1
1
1
1
1
1
1
1
1.00001
1.001
1.01913
1
1
1
1
1
1
1
1
1
1
1
1
1
1
1
1
1
1
1
1
1
1
1
1
1
1
1
1
1
1
1
1
1
1
1
1
1
1
1
1
1
1
1
1
1.00002
1.00305
1.05934
1.45119
1
1
1
1
1
1
1
1
1
1
1
1
1
1
1
1
1
1
1
1
1
1
1
1
1
1
1
1
1
1
1
1
1
1
1
1
1
1
1
1
1
1
1
1.00012
1.00475
1.11791
1.66922
2.80612
1
1
1
1
1
1
1
1
1
1
1
1
1
1
1
1
1
1
1
1
1
1
1
1
1
1
1
1
1
1
1
1
1
1
1
1
1
1
1
1
1
1
1.00031
1.01716
1.18019
1.92925
2.93142
3.62155
1
1
1
1
1
1
1
1
1
1
1
1
1
1
1
1
1
1
1
1
1
1
1
1
1
1
1
1
1
1
1
1
1
1
1
1
1
1
1
0.999999
1.00001
1.00188
1.03978
1.35413
2.19026
3.23666
3.62437
3.69167
1
1
1
1
1
1
1
1
1
1
1
1
1
1
1
1
1
1
1
1
1
1
1
1
1
1
1
1
1
1
1
1
1
1
1
1
1
1
0.999999
1.00015
1.00618
1.10115
1.61145
2.62397
3.32792
3.55848
3.72257
3.76269
1
1
1
1
1
1
1
1
1
1
1
1
1
1
1
1
1
1
1
1
1
1
1
1
1
1
1
1
1
1
1
1
1
1
1
1
1
1.00001
1.00086
1.02512
1.24523
1.94441
2.90112
3.50014
3.76728
3.80058
3.79731
3.78827
1
1
1
1
1
1
1
1
1
1
1
1
1
1
1
1
1
1
1
1
1
1
1
1
1
1
1
1
1
1
1
1
1
1
1
0.999998
1.00008
1.00583
1.08448
1.50165
2.38975
3.24263
3.6975
3.74755
3.76227
3.76433
3.75678
3.75369
1
1
1
1
1
1
1
1
1
1
1
1
1
1
1
1
1
1
1
1
1
1
1
1
1
1
1
1
1
1
1
1
0.999999
0.999999
1
1.00154
1.02651
1.23336
1.8995
2.89893
3.49802
3.59876
3.65526
3.71454
3.751
3.76552
3.76766
3.76561
1
1
1
1
1
1
1
1
1
1
1
1
1
1
1
1
1
1
1
1
1
1
1
1
1
1
1
1
1
1
1
1
0.999996
1.0004
1.00834
1.11774
1.57702
2.4623
3.16665
3.49895
3.699
3.77091
3.76885
3.78025
3.78857
3.79079
3.7883
3.78338
1
1
1
1
1
1
1
1
1
1
1
1
1
1
1
1
1
1
1
1
1
1
1
1
1
1
1
1
1
1
0.999997
1.00011
1.00305
1.06142
1.34683
2.08728
2.92264
3.48593
3.73228
3.76611
3.77198
3.78831
3.79059
3.79126
3.78826
3.78551
3.78242
3.77991
1
1
1
1
1
1
1
1
1
1
1
1
1
1
1
1
1
1
1
1
1
1
1
1
1
1
1
0.999999
0.999998
1.00001
1.00136
1.03588
1.21388
1.84327
2.67251
3.37117
3.69189
3.71784
3.73303
3.73261
3.73005
3.74009
3.7549
3.76565
3.77085
3.77382
3.77694
3.77657
1
1
1
1
1
1
1
1
1
1
1
1
1
1
1
1
1
1
1
1
1
1
1
1
1
0.999998
0.999999
0.999993
1.00098
1.02104
1.14916
1.67066
2.44873
3.29934
3.53236
3.62018
3.66444
3.71182
3.73287
3.73949
3.74331
3.74963
3.76303
3.77459
3.7782
3.7787
3.77962
3.77851
1
1
1
1
1
1
1
1
1
1
1
1
1
1
1
1
1
1
1
1
1
1
1
0.999998
0.999999
0.999989
1.00084
1.01207
1.12795
1.57245
2.33975
3.07467
3.41374
3.61276
3.72898
3.74808
3.75078
3.76487
3.77328
3.77772
3.77818
3.77538
3.77384
3.77489
3.77668
3.77902
3.7797
3.77883
1
1
1
1
1
1
1
1
1
1
1
1
1
1
1
1
1
1
1
1
1
0.999998
0.999999
0.999988
1.00046
1.00896
1.12699
1.49081
2.25611
2.95083
3.45459
3.68969
3.7487
3.75051
3.76875
3.77064
3.76902
3.77528
3.7823
3.78401
3.78157
3.77804
3.77363
3.76895
3.76782
3.76873
3.76961
3.77073
1
1
1
1
1
1
1
1
1
1
1
1
1
1
1
1
1
1
1
0.999999
0.999999
0.999988
1.00027
1.01101
1.11344
1.45808
2.2259
2.94689
3.50524
3.69257
3.71387
3.72596
3.72928
3.72415
3.73004
3.73854
3.74855
3.76191
3.76959
3.77185
3.77018
3.76937
3.76974
3.76816
3.76639
3.76628
3.76848
3.76979
1
1
1
1
1
1
1
1
1
1
1
1
1
1
1
1
1
0.999998
0.999998
0.999985
1.00028
1.01415
1.10099
1.50877
2.22585
3.01257
3.54101
3.61017
3.68527
3.69063
3.69114
3.70271
3.70965
3.71802
3.73125
3.74589
3.76077
3.77253
3.77739
3.77912
3.7786
3.77869
3.77873
3.77682
3.77415
3.77323
3.77404
3.77432
1
1
1
1
1
1
1
1
1
1
1
1
1
1
1
0.999998
0.999998
0.99998
1.00047
1.01131
1.11688
1.57678
2.25872
3.13238
3.44846
3.59913
3.66877
3.73874
3.74474
3.72824
3.72279
3.72822
3.73503
3.74582
3.75673
3.76523
3.77219
3.77835
3.784
3.78537
3.78438
3.78322
3.78073
3.77625
3.77313
3.77233
3.77225
3.77288
1
1
1
1
1
1
1
1
1
1
1
1
1
0.999998
0.999998
0.999971
1.00056
1.01172
1.15604
1.58181
2.42765
3.11597
3.51216
3.75238
3.79043
3.79232
3.76531
3.7438
3.74267
3.74368
3.74606
3.74695
3.7517
3.75727
3.76111
3.76325
3.76459
3.76807
3.77441
3.77905
3.7796
3.77884
3.7763
3.77502
3.77429
3.77396
3.77356
3.77504
1
1
1
1
1
1
1
1
1
1
1
0.999998
0.999998
0.999969
1.00039
1.02051
1.1944
1.66297
2.54334
3.21099
3.76245
3.87895
3.87354
3.82615
3.78341
3.75228
3.72385
3.71212
3.71494
3.72585
3.73827
3.75468
3.76333
3.76749
3.76562
3.76336
3.76222
3.76169
3.7662
3.77186
3.77271
3.77194
3.77083
3.77004
3.76974
3.76954
3.76842
3.77277
1
1
1
1
1
1
1
1
1
0.999997
0.999998
0.999954
1.00076
1.03225
1.2032
1.83533
2.68287
3.48644
3.90329
3.88246
3.86127
3.81639
3.76141
3.72702
3.69563
3.68525
3.6852
3.69783
3.71888
3.73966
3.75723
3.77064
3.77363
3.77399
3.77334
3.77246
3.77027
3.76875
3.77024
3.77384
3.77501
3.77329
3.77075
3.76777
3.76424
3.76213
3.76045
3.76501
1
1
1
1
1
1
1
0.999999
1
0.999921
1.00239
1.04038
1.29852
1.98456
2.84185
3.75355
3.92125
4.00994
3.97952
3.92665
3.81198
3.72607
3.68001
3.66513
3.67257
3.68251
3.69793
3.7207
3.74294
3.76113
3.77579
3.78056
3.7816
3.78034
3.77854
3.77836
3.77743
3.77646
3.77757
3.78087
3.78443
3.7852
3.78333
3.77995
3.77387
3.76716
3.76498
3.76613
1
1
1
1
0.999998
1
1
1.00008
1.00562
1.06884
1.43805
2.11889
3.22859
3.76766
4.03753
4.02195
3.9293
3.89705
3.8466
3.7736
3.76033
3.72884
3.71574
3.71734
3.72732
3.73461
3.74561
3.75957
3.76811
3.77335
3.77784
3.77794
3.77718
3.77457
3.7709
3.76902
3.76695
3.7661
3.76777
3.7718
3.77782
3.78235
3.78326
3.78132
3.77779
3.77194
3.76925
3.77079
1
0.999977
1.00007
1.00008
1.00129
1.0134
1.06162
1.22137
1.60303
2.35191
3.31258
3.9186
4.31706
4.32535
4.25227
4.11116
3.97001
3.79233
3.67806
3.67477
3.68506
3.70921
3.7415
3.7548
3.75836
3.75656
3.75441
3.75767
3.75969
3.76239
3.76551
3.769
3.76933
3.76779
3.76456
3.76137
3.76017
3.76103
3.76361
3.76839
3.77609
3.78384
3.78667
3.78643
3.78483
3.78031
3.77374
3.77369
1.00217
1.01401
1.07425
1.20501
1.40816
1.76951
2.21573
2.75412
3.31542
3.73903
3.88914
4.0531
4.0551
3.96256
3.84006
3.78367
3.74617
3.70154
3.6724
3.66779
3.67867
3.70392
3.72953
3.7422
3.74549
3.74697
3.75275
3.75579
3.75712
3.76048
3.76678
3.77386
3.77889
3.78074
3.77958
3.77606
3.77174
3.76974
3.77006
3.77188
3.77502
3.77842
3.7794
3.7789
3.77723
3.77291
3.76721
3.7677
1.28932
1.75811
2.32125
2.87698
3.57645
4.17221
4.65142
5.11584
5.347
5.25956
4.92486
4.46721
4.08145
3.79524
3.66477
3.5783
3.55686
3.57259
3.60784
3.64754
3.6863
3.70755
3.71868
3.72768
3.73835
3.75003
3.75977
3.76533
3.76936
3.77652
3.78882
3.79845
3.80003
3.79804
3.79243
3.78291
3.77375
3.76863
3.76625
3.76564
3.76541
3.76671
3.76935
3.76978
3.76963
3.76839
3.76607
3.76639
2.66473
1.69886
1.06072
0.870108
0.755473
0.65649
0.663543
0.728471
0.793757
0.828401
0.873837
0.962614
1.02267
1.02252
1.02367
1.04576
1.0561
1.05643
1.0613
1.06912
1.07136
1.07037
1.07003
1.07138
1.0645
1.04595
1.03945
1.04103
1.04422
1.0456
1.04446
1.04327
1.04235
1.0401
1.03844
1.03873
1.04061
1.04548
1.04883
1.04933
1.04931
1.04835
1.04651
1.04649
1.04751
1.04908
1.05078
1.05216
1.05768
1.17706
1.92545
3.39373
5.23765
7.89564
10.2577
9.98612
9.17856
8.27454
8.08498
8.01007
7.8409
7.50739
7.18432
7.03369
6.92943
6.84952
6.75781
6.64039
6.50882
6.2862
5.96753
5.78633
5.70875
5.64455
5.60553
5.54875
5.46626
5.34145
5.10266
4.85427
4.76599
4.71938
4.70039
4.71568
4.68178
4.62441
4.5365
4.3431
4.09826
3.99674
3.95395
3.91862
3.89828
3.87093
3.83048
3.78043
3.69153
3.55579
3.46327
3.4188
3.38037
3.33806
3.28655
3.21571
3.12124
3.04262
3.00386
2.9787
2.9578
2.93842
2.91436
2.87815
2.81403
2.70816
2.62083
2.58275
2.55961
2.54158
2.52724
2.50939
2.48124
2.43382
2.36096
2.29778
2.26512
2.24434
2.22631
2.2068
2.18157
2.14095
2.07949
2.03493
2.01767
2.00538
1.99291
1.97848
1.95751
1.91532
1.84493
1.80074
1.78613
1.77535
1.76494
1.75447
1.74507
1.73659
1.72724
1.71192
1.66944
1.60395
1.55883
1.537
1.52432
1.51522
1.50736
1.49999
1.4929
1.48403
1.47294
1.45788
1.43148
1.39233
1.35776
1.33392
1.31842
1.31183
1.30789
1.31156
1.32947
1.39178
1.52212
1.71131
1.98867
2.28976
2.57147
2.84394
3.11445
3.36681
3.56208
3.69774
3.75163
3.7224
3.65128
3.59605
3.51513
3.4649
3.48746
3.50876
3.49452
3.46068
3.40561
3.25988
3.36166
2.79021
2.15617
1.70955
1.5096
1.28021
1.10375
1.06552
1.00746
0.939247
0.917306
0.932155
0.939374
0.941762
0.950216
0.977044
0.997501
1.00598
1.01727
1.03756
1.05125
1.05247
1.05402
1.05591
1.05384
1.04481
1.04238
1.04393
1.047
1.04912
1.04884
1.04878
1.04854
1.04642
1.04499
1.04465
1.04546
1.04696
1.04729
1.04748
1.04737
1.04618
1.04522
1.04528
1.04559
1.0461
1.0488
1.06371
1.17216
1.84333
2.8223
3.18037
3.88108
4.86708
6.60807
7.93916
8.53499
8.39787
8.2659
8.07943
7.82749
7.53606
7.27567
7.08024
6.914
6.78722
6.68589
6.59665
6.4788
6.30879
6.05448
5.82511
5.71056
5.63929
5.57466
5.51475
5.4356
5.33137
5.16242
4.93822
4.79846
4.74259
4.69987
4.67046
4.63666
4.57935
4.49949
4.36122
4.1657
4.03289
3.97626
3.93852
3.90054
3.86351
3.82867
3.78526
3.7082
3.59017
3.50042
3.45017
3.40947
3.36495
3.30912
3.23486
3.14954
3.07654
3.02949
2.99298
2.9619
2.93557
2.91342
2.88434
2.81902
2.71958
2.64234
2.60268
2.57284
2.54314
2.51888
2.50206
2.484
2.44654
2.3802
2.32213
2.29254
2.26977
2.24867
2.22787
2.20182
2.16481
2.11295
2.06529
2.04119
2.02479
2.00953
1.99315
1.9716
1.93362
1.86527
1.80716
1.78805
1.77841
1.7691
1.75927
1.74826
1.73505
1.71959
1.69866
1.66346
1.6117
1.57457
1.55806
1.54714
1.53583
1.52585
1.51656
1.50735
1.49671
1.48447
1.4684
1.44461
1.40772
1.3763
1.35443
1.3459
1.35245
1.37663
1.44508
1.56561
1.72878
1.89478
2.0229
2.15866
2.21743
2.28062
2.39293
2.55171
2.74429
2.94612
3.08302
3.14186
3.16767
3.17648
3.21568
3.26289
3.32541
3.41214
3.47149
3.48375
3.45475
3.39858
3.27654
3.66102
3.33926
2.87314
2.35365
1.98815
1.68042
1.38628
1.24709
1.15027
1.01549
0.947973
0.9513
0.941941
0.927434
0.932117
0.942841
0.952003
0.963254
0.98042
1.01527
1.03916
1.03969
1.04035
1.04426
1.04413
1.04103
1.04281
1.04697
1.05337
1.05683
1.0566
1.0551
1.0514
1.04772
1.04705
1.04687
1.04707
1.04654
1.04591
1.04551
1.044
1.04339
1.0435
1.04379
1.04454
1.0498
1.09519
1.30884
1.90097
3.01792
3.34221
3.32811
3.38638
3.55127
4.16021
5.88075
7.77706
8.59107
8.44002
8.0765
7.74996
7.57651
7.38522
7.16414
6.94171
6.73277
6.61464
6.51743
6.39073
6.24594
6.09514
5.9037
5.73599
5.64808
5.57236
5.48328
5.38094
5.26851
5.15277
5.01965
4.86295
4.763
4.70982
4.65114
4.58189
4.49908
4.40675
4.31224
4.21339
4.10085
4.01354
3.96566
3.92703
3.88095
3.82261
3.7451
3.65468
3.5674
3.49262
3.4271
3.37213
3.32117
3.26188
3.18962
3.12624
3.0867
3.05031
3.01672
2.98821
2.95381
2.90577
2.84496
2.77145
2.69881
2.65309
2.61652
2.57967
2.54946
2.52451
2.49381
2.45387
2.40634
2.35371
2.31762
2.29002
2.25869
2.22315
2.19599
2.17385
2.14443
2.10278
2.05638
2.024
2.00511
1.98721
1.96826
1.94654
1.91437
1.86219
1.82118
1.80741
1.79768
1.78796
1.77611
1.76219
1.74486
1.71808
1.6788
1.63444
1.59544
1.57646
1.56215
1.54487
1.52758
1.51232
1.49982
1.48937
1.47755
1.46556
1.45038
1.43046
1.40966
1.38557
1.38848
1.41644
1.50852
1.64877
1.83423
2.01319
2.14926
2.24191
2.24858
2.20548
2.1755
2.17633
2.20049
2.26058
2.33344
2.41734
2.50949
2.6219
2.75482
2.88229
3.00298
3.14442
3.2532
3.323
3.36436
3.39012
3.38892
3.37633
3.29549
3.74927
3.6189
3.33115
2.89976
2.49095
2.14694
1.80142
1.58907
1.45167
1.26995
1.142
1.11128
1.05318
0.977702
0.972689
0.970116
0.95304
0.944055
0.950527
0.968743
0.982207
0.98833
0.995033
1.00958
1.02123
1.02862
1.03663
1.04507
1.05073
1.05293
1.05355
1.05274
1.0518
1.05186
1.05382
1.05644
1.0567
1.05567
1.05336
1.0494
1.04423
1.04231
1.04193
1.04233
1.0481
1.10754
1.53858
2.23759
3.03579
3.48309
3.48208
3.40507
3.38038
3.38277
3.40067
3.73103
5.06648
7.17953
7.76264
7.76057
7.72827
7.61153
7.43359
7.21948
6.99352
6.77432
6.58464
6.44692
6.32081
6.19554
6.08861
5.97786
5.81771
5.64889
5.53761
5.43972
5.33666
5.24309
5.16819
5.08576
4.96022
4.80879
4.67702
4.59259
4.51161
4.42587
4.34628
4.28703
4.23924
4.17698
4.09115
3.98776
3.90304
3.83984
3.77214
3.6936
3.61961
3.56157
3.50964
3.44943
3.3772
3.30583
3.24322
3.18873
3.14581
3.10689
3.06498
3.02047
2.97649
2.92736
2.86337
2.79496
2.74869
2.7176
2.6848
2.6469
2.60787
2.56849
2.52531
2.47606
2.42141
2.38194
2.35919
2.33734
2.30994
2.27216
2.22565
2.18386
2.16113
2.14266
2.11344
2.0644
2.02095
2.00232
1.98698
1.96651
1.93818
1.90319
1.87093
1.84184
1.80478
1.77508
1.76336
1.75305
1.74102
1.72585
1.69798
1.65147
1.62109
1.61009
1.59862
1.58112
1.55514
1.52982
1.51309
1.50031
1.49004
1.47952
1.46922
1.45716
1.43605
1.44344
1.48519
1.59618
1.75103
1.93729
2.09941
2.2535
2.35304
2.35819
2.31671
2.28006
2.25566
2.24088
2.22892
2.2092
2.19587
2.19039
2.19589
2.20958
2.2348
2.29336
2.36584
2.44219
2.57831
2.73747
2.8507
2.963
3.06842
3.17521
3.20959
3.19793
3.7598
3.73086
3.59869
3.29879
2.93585
2.59294
2.20818
1.9438
1.76817
1.54883
1.36101
1.27054
1.18317
1.05984
1.01986
1.00796
0.972617
0.950004
0.955471
0.966058
0.962527
0.959926
0.962035
0.971637
0.988641
1.00544
1.02088
1.03583
1.0429
1.04704
1.04858
1.04729
1.04592
1.04923
1.05617
1.0582
1.05827
1.05743
1.05492
1.05027
1.04489
1.04287
1.04285
1.04735
1.10179
1.57874
2.58004
3.16444
3.50569
3.53967
3.49209
3.40621
3.3283
3.30983
3.31904
3.28627
3.40997
4.30397
6.09564
7.19772
7.62779
7.57504
7.39606
7.19712
7.03263
6.84469
6.6138
6.39004
6.2586
6.1624
6.06578
5.96045
5.83749
5.65784
5.48151
5.38544
5.30768
5.23238
5.1521
5.06834
4.98162
4.84184
4.64789
4.51752
4.44754
4.38773
4.3353
4.28889
4.24962
4.21331
4.1475
4.02214
3.87891
3.78502
3.71861
3.66229
3.61106
3.56026
3.50586
3.4345
3.34286
3.27379
3.2291
3.19704
3.16917
3.14068
3.10769
3.05559
2.97761
2.89227
2.82109
2.7693
2.72881
2.69563
2.66729
2.6403
2.61405
2.58712
2.53961
2.46892
2.40804
2.36694
2.33543
2.30993
2.28778
2.26167
2.22352
2.18708
2.15646
2.12328
2.09239
2.06374
2.0287
1.99373
1.97415
1.95563
1.92972
1.9003
1.87564
1.84996
1.81495
1.77953
1.7583
1.74553
1.73136
1.71119
1.6808
1.64494
1.61791
1.5999
1.58489
1.56771
1.54372
1.52285
1.51483
1.50797
1.50512
1.50235
1.49375
1.50496
1.55992
1.68328
1.8628
2.05016
2.18982
2.3274
2.3722
2.37939
2.38898
2.38015
2.36484
2.35194
2.33003
2.29121
2.23808
2.19961
2.1843
2.1722
2.16647
2.17002
2.16393
2.15662
2.1433
2.12828
2.14527
2.1956
2.2858
2.42847
2.58547
2.76266
2.9041
3.0452
3.76376
3.7503
3.70679
3.55365
3.28462
2.98656
2.62542
2.30438
2.08156
1.85397
1.6443
1.51476
1.40332
1.25015
1.1788
1.14476
1.08967
1.02603
1.02229
1.00933
0.982004
0.963749
0.961981
0.96077
0.963121
0.972247
0.99061
1.01045
1.02038
1.02678
1.03404
1.03618
1.03743
1.04468
1.05395
1.05565
1.05628
1.05649
1.05471
1.04916
1.04505
1.04594
1.05695
1.14444
1.57198
2.73694
3.26905
3.47388
3.59814
3.56451
3.43043
3.34914
3.30861
3.25643
3.23609
3.2302
3.1812
3.22183
3.68923
5.07135
6.51275
7.02449
7.20382
7.21433
7.07908
6.87493
6.63017
6.37077
6.21771
6.13365
6.0457
5.949
5.83613
5.67253
5.46366
5.34028
5.27254
5.20559
5.1372
5.06893
4.98579
4.85252
4.65036
4.48492
4.42106
4.3745
4.33236
4.2957
4.25104
4.1955
4.1185
3.98848
3.83858
3.75537
3.7023
3.65791
3.61913
3.57949
3.51699
3.41572
3.32152
3.2727
3.24258
3.21445
3.18182
3.13941
3.08511
3.01985
2.93113
2.84794
2.7963
2.75897
2.7238
2.69199
2.67014
2.65514
2.63774
2.59328
2.51674
2.43993
2.39397
2.3639
2.337
2.30758
2.28101
2.26471
2.2451
2.20924
2.15602
2.1129
2.08555
2.0624
2.03496
1.99332
1.95635
1.94273
1.93083
1.9137
1.89246
1.86682
1.83465
1.7973
1.76308
1.74024
1.72047
1.69574
1.66686
1.64007
1.61871
1.60147
1.58573
1.56648
1.54695
1.53242
1.52819
1.52727
1.53308
1.56593
1.66536
1.80479
2.00537
2.18785
2.34898
2.45073
2.45223
2.41652
2.40722
2.41267
2.43334
2.43736
2.42251
2.3925
2.34085
2.28371
2.23469
2.20149
2.18936
2.18822
2.17503
2.15806
2.14073
2.11547
2.0984
2.09571
2.08195
2.03966
2.02148
2.03567
2.08528
2.17917
2.30014
2.54537
3.77324
3.76719
3.7572
3.69024
3.53437
3.29443
2.96659
2.6753
2.41998
2.14697
1.92866
1.76785
1.62893
1.47207
1.37213
1.30069
1.21434
1.11727
1.08748
1.05563
1.00635
0.976052
0.975125
0.96885
0.966558
0.971847
0.981743
0.985357
0.987171
0.991173
0.998973
1.01
1.022