/*--------------------------------*- C++ -*----------------------------------*\
  =========                 |
  \\      /  F ield         | OpenFOAM: The Open Source CFD Toolbox
   \\    /   O peration     | Website:  https://openfoam.org
    \\  /    A nd           | Version:  7
     \\/     M anipulation  |
\*---------------------------------------------------------------------------*/
FoamFile
{
    version     2.0;
    format      ascii;
    class       volScalarField;
    location    "1.3";
    object      T;
}
// * * * * * * * * * * * * * * * * * * * * * * * * * * * * * * * * * * * * * //

dimensions      [0 0 0 1 0 0 0];

internalField   nonuniform List<scalar> 
18432
(
1
1
1
1
1
1
1
1
1
1
1
1
1
1
1
1
1
1
1
1
1
1
1
1
1
1
1
1
1
1
1
1
1
1
1
1
1
1
1
1
1
1
1
1
1
1
1
1
1
1
1
1
1
1
1
1
1
1
1
1
1
1
1
1
1
1
1
1
1
1
1
1
1
1
1
1
1
1
1
1
1
1
1
1
1
1
1
1
1
1
1
1
1
1
1
1
1
1
1
1
1
1
1
1
1
1
1
1
1
1
1
1
1
1
1
1
1
1
1
1
1
1
1
1
1
1
1
1
1
1
1
1
1
1
1
1
1
1
1
1
1
1
1
1
1
1
1
1
1
1
1
1
1
1
1
1
1
1
1
1
1
1
1
1
1
1
1
1
1
1
1
1
1
1
1
1
1
1
1
1
1
1
1
1
1
1
1
1
1
1
1
1
1
1
1
1
1
1
1
1
1
1
1
1
1
1
1
1
1
1
1
1
1
1
1
1
1
1
1
1
1
1
1
1
1
1
1
1
1
1
1
1
1
1
1
1
1
1
1
1
1
1
1
1
1
1
1
1
1
1
1
1
1
1
1
1
1
1
1
1
1
1
1
1
1
1
1
1
1
1
1
1
1
1
1
1
1
1
1
1
1
1
1
1
1
1
1
1
1
1
1
1
1
1
1
1
1
1
1
1
1
1
1
1
1
1
1
1
1
1
1
1
1
1
1
1
1
1
1
1
1
1
1
1
1
1
1
1
1
1
1
1
1
1
1
1
1
1
1
1
1
1
1
1
1
1
1
1
1
1
1
1
1
1
1
1
1
1
1
1
1
1
1
1
1
1
1
1
1
1
1
1
1
1
1
1
1
1
1
1
1
1
1
1
1
1
1
1
1
1
1
1
1
1
1
1
1
1
1
1
1
1
1
1
1
1
1
1
1
1
1
1
1
1
1
1
1
1
1
1
1
1
1
1
1
1
1
1
1
1
1
1
1
1
1
1
1
1
1
1
1
1
1
1
1
1
1
1
1
1
1
1
1
1
1
1
1
1
1
1
1
1
1
1
1
1
1
1
1
1
1
1
1
1
1
1
1
1
1
1
1
1
1
1
1
1
1
1
1
1
1
1
1
1
1
1
1
1
1
1
1
1
1
1
1
1
1
1
1
1
1
1
1
1
1
1
1
1
1
1
1
1
1
1
1
1
1
1
1
1
1
1
1
1
1
1
1
1
1
1
1
1
1
1
1
1
1
1
1
1
1
1
1
1
1
1
1
1
1
1
1
1
1
1
1
1
1
1
1
1
1
1
1
1
1
1
1
1
1
1
1
1
1
1
1
1
1
1
1
1
1
1
1
1
1
1
1
1
1
1
1
1
1
1
1
1
1
1
1
1
1
1
1
1
1
1
1
1
1
1
1
1
1
1
1
1
1
1
1
1
1
1
1
1
1
1
1
1
1
1
1
1
1
1
1
1
1
1
1
1
1
1
1
1
1
1
1
1
1
1
1
1
1
1
1
1
1
1
1
1
1
1
1
1
1
1
1
1
1
1
1
1
1
1
1
1
1
1
1
1
1
1
1
1
1
1
1
1
1
1
1
1
1
1
1
1
1
1
1
1
1
1
1
1
1
1
1
1
1
1
1
1
1
1
1
1
1
1
1
1
1
1
1
1
1
1
1
1
1
1
1
1
1
1
1
1
1
1
1
1
1
1
1
1
1
1
1
1
1
1
1
1
1
1
1
1
1
1
1
1
1
1
1
1
1
1
1
1
1
1
1
1
1
1
1
1
1
1
1
1
1
1
1
1
1
1
1
1
1
1
1
1
1
1
1
1
1
1
1
1
1
1
1
1
1
1
1
1
1
1
1
1
1
1
1
1
1
1
1
1
1
1
1
1
1
1
1
1
1
1
1
1
1
1
1
1
1
1
1
1
1
1
1
1
1
1
1
1
1
1
1
1
1
1
1
1
1
1
1
1
1
1
1
1
1
1
1
1
1
1
1
1
1
1
1
1
1
1
1
1
1
1
1
1
1
1
1
1
1
1
1
1
1
1
1
1
1
1
1
1
1
1
1
1
1
1
1
1
1
1
1
1
1
1
1
1
1
1
1
1
1
1
1
1
1
1
1
1
1
1
1
1
1
1
1
1
1
1
1
1
1
1
1
1
1
1
1
1
1
1
1
1
1
1
1
1
1
1
1
1
1
1
1
1
1
1
1
1
1
1
1
1
1
1
1
1
1
1
1
1
1
1
1
1
1
1
1
1
1
1
1
1
1
1
1
1
1
1
1
1
1
1
1
1
1
1
1
1
1
1
1
1
1
1
1
1
1
1
1
1
1
1
1
1
1
1
1
1
1
1
1
1
1
1
1
1
1
1
1
1
1
1
1
1
1
1
1
1
1
1
1
1
1
1
1
1
1
1
1
1
1
1
1
1
1
1
1
1
1
1
1
1
1
1
1
1
1
1
1
1
1
1
1
1
1
1
1
1
1
1
1
1
1
1
1
1
1
1
1
1
1
1
1
1
1
1
1
1
1
1
1
1
1
1
1
1
1
1
1
1
1
1
1
1
1
1
1
1
1
1
1
1
1
1
1
1
1
1
1
1
1
1
1
1
1
1
1
1
1
1
1
1
1
1
1
1
1
1
1
1
1
1
1
1
1
1
1
1
1
1
1
1
1
1
1
1
1
1
1
1
1
1
1
1
1
1
1
1
1
1
1
1
1
1
1
1
1
1
1
1
1
1
1
1
1
1
1
1
1
1
1
1
1
1
1
1
1
1
1
1
1
1
1
1
1
1
1
1
1
1
1
1
1
1
1
1
1
1
1
1
1
1
1
1
1
1
1
1
1
1
1
1
1
1
1
1
1
1
1
1
1
1
1
1
1
1
1
1
1
1
1
1
1
1
1
1
1
1
1
1
1
1
1
1
1
1
1
1
1
1
1
1
1
1
1
1
1
1
1
1
1
1
1
1
1
1
1
1
1
1
1
1
1
1
1
1
1
1
1
1
1
1
1
1
1
1
1
1
1
1
1
1
1
1
1
1
1
1
1
1
1
1
1
1
1
1
1
1
1
1
1
1
1
1
1
1
1
1
1
1
1
1
1
1
1
1
1
1
1
1
1
1
1
1
1
1
1
1
1
1
1
1
1
1
1
1
1
1
1
1
1
1
1
1
1
1
1
1
1
1
1
1
1
1
1
1
1
1
1
1
1
1
1
1
1
1
1
1
1
1
1
1
1
1
1
1
1
1
1
1
1
1
1
1
1
1
1
1
1
1
1
1
1
1
1
1
1
1
1
1
1
1
1
1
1
1
1
1
1
1
1
1
1
1
1
1
1
1
1
1
1
1
1
1
1
1
1
1
1
1
1
1
1
1
1
1
1
1
1
1
1
1
1
1
1
1
1
1
1
1
1
1
1
1
1
1
1
1
1
1
1
1
1
1
1
1
1
1
1
1
1
1
1
1
1
1
1
1
1
1
1
1
1
1
1
1
1
1
1
1
1
1
1
1
1
1
1
1
1
1
1
1
1
1
1
1
1
1
1
1
1
1
1
1
1
1
1
1
1
1
1
1
1
1
1
1
1
1
1
1
1
1
1
1
1
1
1
1
1
1
1
1
1
1
1
1
1
1
1
1
1
1
1
1
1
1
1
1
1
1
1
1
1
1
1
1
1
1
1
1
1
1
1
1
1
1
1
1
1
1
1
1
1
1
1
1
1
1
1
1
1
1
1
1
1
1
1
1
1
1
1
1
1
1
1
1
1
1
1
1
1
1
1
1
1
1
1
1
1
1
1
1
1
1
1
1
1
1
1
1
1
1
1
1
1
1
1
1
1
1
1
1
1
1
1
1
1
1
1
1
1
1
1
1
1
1
1
1
1
1
1
1
1
1
1
1
1
1
1
1
1
1
1
1
1
1
1
1
1
1
1
1
1
1
1
1
1
1
1
1
1
1
1
1
1
1
1
1
1
1
1
1
1
1
1
1
1
1
1
1
1
1
1
1
1
1
1
1
1
1
1
1
1
1
1
1
1
1
1
1
1
1
1
1
1
1
1
1
1
1
1
1
1
1
1
1
1
1
1
1
1
1
1
1
1
1
1
1
1
1
1
1
1
1
1
1
1
1
1
1
1
1
1
1
1
1
1
1
1
1
1
1
1
1
1
1
1
1
1
1
1
1
1
1
1
1
1
1
1
1
1
1
1
1
1
1
1
1
1
1
1
1
1
1
1
1
1
1
1
1
1
1
1
1
1
1
1
1
1
1
1
1
1
1
1
1
1
1
1
1
1
1
1
1
1
1
1
1
1
1
1
1
1
1
1
1
1
1
1
1
1
1
1
1
1
1
1
1
1
1
1
1
1
1
1
1
1
1
1
1
1
1
1
1
1
1
1
1
1
1
1
1
1
1
1
1
1
1
1
1
1
1
1
1
1
1
1
1
1
1
1
1
1
1
1
1
1
1
1
1
1
1
1
1
1
1
1
1
1
1
1
1
1
1
1
1
1
1
1
1
1
1
1
1
1
1
1
1
1
1
1
1
1
1
1
1
1
1
1
1
1
1
1
1
1
1
1
1
1
1
1
1
1
1
1
1
1
1
1
1
1
1
1
1
1
1
1
1
1
1
1
1
1
1
1
1
1
1
1
1
1
1
1
1
1
1
1
1
1
1
1
1
1
1
1
1
1
1
1
1
1
1
1
1
1
1
1
1
1
1
1
1
1
1
1
1
1
1
1
1
1
1
1
1
1
1
1
1
1
1
1
1
1
1
1
1
1
1
1
1
1
1
1
1
1
1
1
1
1
1
1
1
1
1
1
1
1
1
1
1
1
1
1
1
1
1
1
1
1
1
1
1
1
1
1
1
1
1
1
1
1
1
1
1
1
1
1
1
1
1
1
1
1
1
1
1
1
1
1
1
1
1
1
1
1
1
1
1
1
1
1
1
1
1
1
1
1
1
1
1
1
1
1
1
1
1
1
1
1
1
1
1
1
1
1
1
1
1
1
1
1
1
1
1
1
1
1
1
1
1
1
1
1
1
1
1
1
1
1
1
1
1
1
1
1
1
1
1
1
1
1
1
1
1
1
1
1
1
1
1
1
1
1
1
1
1
1
1
1
1
1
1
1
1
1
1
1
1
1
1
1
1
1
1
1
1
1
1
1
1
1
1
1
1
1
1
1
1
1
1
1
1
1
1
1
1
1
1
1
1
1
1
1
1
1
1
1
1
1
1
1
1
1
1
1
1
1
1
1
1
1
1
1
1
1
1
1
1
1
1
1
1
1
1
1
1
1
1
1
1
1
1
1
1
1
1
1
1
1
1
1
1
1
1
1
1
1
1
1
1
1
1
1
1
1
1
1
1
1
1
1
1
1
1
1
1
1
1
1
1
1
1
1
1
1
1
1
1
1
1
1
1
1
1
1
1
1
1
1
1
1
1
1
1
1
1
1
1
1
1
1
1
1
1
1
1
1
1
1
1
1
1
1
1
1
1
1
1
1
1
1
1
1
1
1
1
1
1
1
1
1
1
1
1
1
1
1
1
1
1
1
1
1
1
1
1
1
1
1
1
1
1
1
1
1
1
1
1
1
1
1
1
1
1
1
1
1
1
1
1
1
1
1
1
1
1
1
1
1
1
1
1
1
1
1
1
1
1
1
1
1
1
1
1
1
1
1
1
1
1
1
1
1
1
1
1
1
1
1
1
1
1
1
1
1
1
1
1
1
1
1
1
1
1
1
1
1
1
1
1
1
1
1
1
1
1
1
1
1
1
1
1
1
1
1
1
1
1
1
1
1
1
1
1
1
1
1
1
1
1
1
1
1
1
1
1
1
1
1
1
1
1
1
1
1
1
1
1
1
1
1
1
1
1
1
1
1
1
1
1
1
1
1
1
1
1
1
1
1
1
1
1
1
1
1
1
1
1
1
1
1
1
1
1
1
1
1
1
1
1
1
1
1
1
1
1
1
1
1
1
1
1
1
1
1
1
1
1
1
1
1
1
1
1
1
1
1
1
1
1
1
1
1
1
1
1
1
1
1
1
1
1
1
1
1
1
1
1
1
1
1
1
1
1
1
1
1
1
1
1
1
1
1
1
1
1
1
1
1
1
1
1
1
1
1
1
1
1
1
1
1
1
1
1
1
1
1
1
1
1
1
1
1
1
1
1
1
1
1
1
1
1
1
1
1
1
1
1
1
1
1
1
1
1
1
1
1
1
1
1
1
1
1
1
1
1
1
1
1
1
1
1
1
1
1
1
1
1
1
1
1
1
1
1
1
1
1
1
1
1
1
1
1
1
1
1
1
1
1
1
1
1
1
1
1
1
1
1
1
1
1
1
1
1
1
1
1
1
1
1
1
1
1
1
1
1
1
1
1
1
1
1
1
1
1
1
1
1
1
1
1
1
1
1
1
1
1
1
1
1
1
1
1
1
1
1
1
1
1
1
1
1
1
1
1
1
1
1
1
1
1
1
1
1
1
1
1
1
1
1
1
1
1
1
1
1
1
1
1
1
1
1
1
1
1
1
1
1
1
1
1
1
1
1
1
1
1
1
1
1
1
1
1
1
1
1
1
1
1
1
1
1
1
1
1
1
1
1
1
1
1
1
1
1
1
1
1
1
1
1
1
1
1
1
1
1
1
1
1
1
1
1
1
1
1
1
1
1
1
1
1
1
1
1
1
1
1
1
1
1
1
1
1
1
1
1
1
1
1
1
1
1
1
1
1
1
1
1
1
1
1
1
1
1
1
1
1
1
1
1
1
1
1
1
1
1
1
1
1
1
1
1
1
1
1
1
1
1
1
1
1
1
1
1
1
1
1
1
1
1
1
1
1
1
1
1
1
1
1
1
1
1
1
1
1
1
1
1
1
1
1
1
1
1
1
1
1
1
1
1
1
1
1
1
1
1
1
1
1
1
1
1
1.07772
1.18132
1.28577
1.37639
1.47746
1.55801
1.61808
1.67003
1.69616
1.69016
1.65952
1.61267
1.57222
1.54047
1.52637
1.51382
1.51283
1.51514
1.52022
1.52578
1.53059
1.5328
1.534
1.53534
1.5373
1.53955
1.54122
1.54183
1.54214
1.54306
1.54503
1.54663
1.547
1.54701
1.54663
1.54551
1.54444
1.54408
1.54409
1.54431
1.54457
1.5449
1.54525
1.54539
1.54549
1.54548
1.54541
1.54558
1.00069
1.00469
1.02563
1.06907
1.12816
1.21634
1.29964
1.37953
1.45179
1.50678
1.52848
1.5576
1.56924
1.56344
1.55325
1.54595
1.54078
1.53526
1.53334
1.53326
1.53453
1.5372
1.53985
1.54135
1.54225
1.54298
1.54415
1.54436
1.54428
1.54455
1.54545
1.5466
1.54746
1.54783
1.54773
1.54726
1.54666
1.54648
1.54661
1.54708
1.54767
1.54808
1.54814
1.54806
1.54786
1.54743
1.54688
1.54733
1
0.999993
1.00002
1.00003
1.00045
1.00465
1.02146
1.07448
1.18286
1.34512
1.50016
1.58144
1.62569
1.62416
1.61377
1.59669
1.57997
1.55909
1.54708
1.54677
1.54798
1.5506
1.55384
1.55451
1.55478
1.55465
1.55458
1.55487
1.55465
1.55438
1.55422
1.55447
1.55452
1.55428
1.55375
1.55302
1.55245
1.55228
1.55237
1.55285
1.55371
1.55437
1.55442
1.55411
1.55358
1.55294
1.55209
1.5529
1
1
1
1
0.999999
1
1
1.00003
1.00203
1.02637
1.15638
1.3296
1.51723
1.58207
1.60741
1.6042
1.5925
1.58946
1.58427
1.57607
1.57381
1.56952
1.56711
1.56595
1.56633
1.56663
1.56765
1.56916
1.56952
1.5693
1.56884
1.56823
1.5678
1.56715
1.56628
1.5654
1.5643
1.56345
1.56326
1.56338
1.56373
1.56376
1.56337
1.56241
1.5613
1.56034
1.55966
1.56064
1
1
1
1
1
1
1
1
1
0.999969
1.00088
1.01556
1.1112
1.29871
1.45978
1.58959
1.60935
1.61757
1.61317
1.60595
1.59136
1.58048
1.57386
1.57087
1.57128
1.57191
1.57344
1.57575
1.57747
1.57848
1.57937
1.57962
1.57959
1.57914
1.5783
1.57742
1.57627
1.57533
1.5751
1.57517
1.57521
1.5748
1.57378
1.57242
1.57091
1.56974
1.5689
1.56975
1
1
1
1
1
1
1
1
1
0.999999
0.999999
0.999981
1.00027
1.01205
1.0763
1.26167
1.43272
1.5558
1.60625
1.60183
1.59864
1.59322
1.58606
1.58189
1.57922
1.57784
1.57713
1.5777
1.57903
1.58079
1.58293
1.58479
1.58481
1.58444
1.58372
1.58281
1.58193
1.58144
1.58149
1.58161
1.58146
1.58074
1.57969
1.57861
1.57766
1.5771
1.57642
1.57736
1
1
1
1
1
1
1
1
1
1
1
0.999999
0.999999
0.999988
1.00013
1.00744
1.0721
1.21397
1.4005
1.50607
1.58296
1.5979
1.59747
1.59293
1.58911
1.58497
1.5799
1.57825
1.57864
1.58014
1.58202
1.58415
1.58489
1.58473
1.58403
1.5833
1.58313
1.58314
1.58372
1.58412
1.58398
1.58343
1.58278
1.58238
1.58215
1.58199
1.58159
1.58219
1
1
1
1
1
1
1
1
1
1
1
1
1
0.999999
0.999999
0.999989
1.00018
1.00418
1.05665
1.18926
1.37193
1.48548
1.54337
1.57857
1.5831
1.58321
1.58013
1.57862
1.57899
1.57932
1.57987
1.58021
1.581
1.58171
1.58196
1.58216
1.58253
1.58331
1.58428
1.58472
1.58468
1.58431
1.58369
1.58356
1.58353
1.58349
1.58334
1.58345
1
1
1
1
1
1
1
1
1
1
1
1
1
1
1
0.999999
0.999999
0.999993
1.00015
1.00396
1.042
1.1856
1.33688
1.48101
1.52705
1.54965
1.56179
1.57233
1.57353
1.57186
1.5722
1.57333
1.57452
1.57614
1.57775
1.5792
1.58059
1.58188
1.58292
1.58322
1.58319
1.58313
1.58297
1.58273
1.58267
1.58272
1.58277
1.58274
1
1
1
1
1
1
1
1
1
1
1
1
1
1
1
1
1
0.999999
0.999999
0.999995
1.00009
1.0049
1.03604
1.16335
1.32806
1.45914
1.53437
1.54633
1.55781
1.56061
1.562
1.56417
1.5654
1.56683
1.56905
1.57168
1.57419
1.57609
1.57731
1.57804
1.57843
1.579
1.57962
1.57999
1.58025
1.58055
1.58109
1.58103
1
1
1
1
1
1
1
1
1
1
1
1
1
1
1
1
1
1
1
1
1
0.999995
1.00008
1.00375
1.04033
1.14768
1.324
1.44775
1.52789
1.55264
1.55589
1.55872
1.56055
1.56119
1.5628
1.56446
1.56608
1.56806
1.56992
1.57127
1.57199
1.57278
1.57362
1.57413
1.57466
1.57534
1.57648
1.57679
1
1
1
1
1
1
1
1
1
1
1
1
1
1
1
1
1
1
1
1
1
1
1
0.999995
1.00015
1.00304
1.04425
1.15768
1.32687
1.44321
1.51556
1.54674
1.55671
1.55942
1.56312
1.56315
1.56282
1.56365
1.56549
1.56701
1.56786
1.56825
1.5683
1.56836
1.56894
1.56996
1.57143
1.57192
1
1
1
1
1
1
1
1
1
1
1
1
1
1
1
1
1
1
1
1
1
1
1
0.999999
1
0.999996
1.00027
1.00412
1.04405
1.1786
1.34028
1.45926
1.50766
1.53697
1.55404
1.55612
1.55597
1.55774
1.56001
1.56186
1.56309
1.56327
1.56325
1.56358
1.56438
1.56557
1.56731
1.56774
1
1
1
1
1
1
1
1
1
1
1
1
1
1
1
1
1
1
1
1
1
1
1
1
1
0.999999
1
0.999997
1.00031
1.0072
1.05125
1.20194
1.36117
1.49163
1.52436
1.53615
1.54188
1.54826
1.55198
1.55412
1.55571
1.55703
1.55821
1.55914
1.56009
1.56104
1.56288
1.56334
1
1
1
1
1
1
1
1
1
1
1
1
1
1
1
1
1
1
1
1
1
1
1
1
1
1
1
1
0.999999
1
1.00044
1.01221
1.0725
1.24125
1.39944
1.50549
1.54515
1.54688
1.54932
1.55102
1.55203
1.5536
1.55466
1.55537
1.55635
1.55779
1.55963
1.55995
1
1
1
1
1
1
1
1
1
1
1
1
1
1
1
1
1
1
1
1
1
1
1
1
1
1
1
1
1
1
0.999999
1.00003
1.001
1.0209
1.11436
1.29325
1.43877
1.51722
1.54996
1.55531
1.55684
1.55829
1.55784
1.55736
1.55719
1.55769
1.55841
1.55845
1
1
1
1
1
1
1
1
1
1
1
1
1
1
1
1
1
1
1
1
1
1
1
1
1
1
1
1
1
1
1
1
0.999999
1.00012
1.00278
1.04004
1.17891
1.36158
1.47414
1.52012
1.54851
1.55596
1.55471
1.55533
1.5565
1.55771
1.55847
1.55834
1
1
1
1
1
1
1
1
1
1
1
1
1
1
1
1
1
1
1
1
1
1
1
1
1
1
1
1
1
1
1
1
1
1
1
1.00048
1.00904
1.0775
1.25397
1.43511
1.52296
1.53416
1.54067
1.54719
1.55229
1.55523
1.55628
1.55608
1
1
1
1
1
1
1
1
1
1
1
1
1
1
1
1
1
1
1
1
1
1
1
1
1
1
1
1
1
1
1
1
1
1
1
0.999999
1.00002
1.00187
1.02888
1.15557
1.35085
1.48902
1.549
1.55221
1.55433
1.5559
1.55529
1.55468
1
1
1
1
1
1
1
1
1
1
1
1
1
1
1
1
1
1
1
1
1
1
1
1
1
1
1
1
1
1
1
1
1
1
1
1
1
1
1.00027
1.00829
1.08215
1.26158
1.43785
1.52266
1.55649
1.56113
1.5606
1.55909
1
1
1
1
1
1
1
1
1
1
1
1
1
1
1
1
1
1
1
1
1
1
1
1
1
1
1
1
1
1
1
1
1
1
1
1
1
1
1
1.00004
1.00202
1.03381
1.18655
1.39209
1.49821
1.53015
1.55231
1.55617
1
1
1
1
1
1
1
1
1
1
1
1
1
1
1
1
1
1
1
1
1
1
1
1
1
1
1
1
1
1
1
1
1
1
1
1
1
1
1
1
1
1.00058
1.01343
1.11421
1.31286
1.48693
1.54051
1.54769
1
1
1
1
1
1
1
1
1
1
1
1
1
1
1
1
1
1
1
1
1
1
1
1
1
1
1
1
1
1
1
1
1
1
1
1
1
1
1
1
1
1
1.00009
1.00555
1.06
1.25861
1.44218
1.54307
1
1
1
1
1
1
1
1
1
1
1
1
1
1
1
1
1
1
1
1
1
1
1
1
1
1
1
1
1
1
1
1
1
1
1
1
1
1
1
1
1
1
1
1.00003
1.00151
1.03899
1.19939
1.4226
1
1
1
1
1
1
1
1
1
1
1
1
1
1
1
1
1
1
1
1
1
1
1
1
1
1
1
1
1
1
1
1
1
1
1
1
1
1
1
1
1
1
1
1
1
1.00094
1.01976
1.13848
1
1
1
1
1
1
1
1
1
1
1
1
1
1
1
1
1
1
1
1
1
1
1
1
1
1
1
1
1
1
1
1
1
1
1
1
1
1
1
1
1
1
1
1
1
1
1.0003
1.00614
1
1
1
1
1
1
1
1
1
1
1
1
1
1
1
1
1
1
1
1
1
1
1
1
1
1
1
1
1
1
1
1
1
1
1
1
1
1
1
1
1
1
1
1
1
1
1
0.99994
1
1
1
1
1
1
1
1
1
1
1
1
1
1
1
1
1
1
1
1
1
1
1
1
1
1
1
1
1
1
1
1
1
1
1
1
1
1
1
1
1
1
1
1
1
1
1
0.999982
1
1
1
1
1
1
1
1
1
1
1
1
1
1
1
1
1
1
1
1
1
1
1
1
1
1
1
1
1
1
1
1
1
1
1
1
1
1
1
1
1
1
1
1
1
1
1
0.999998
1
1
1
1
1
1
1
1
1
1
1
1
1
1
1
1
1
1
1
1
1
1
1
1
1
1
1
1
1
1
1
1
1
1
1
1
1
1
1
1
1
1
1
1
1
1
1
1
1
1
1
1
1
1
1
1
1
1
1
1
1
1
1
1
1
1
1
1
1
1
1
1
1
1
1
1
1
1
1
1
1
1
1
1
1
1
1
1
1
1
1
1
1
1
1
1
1
1
1
1
1
1
1
1
1
1
1
1
1
1
1
1
1
1
1
1
1
1
1
1
1
1
1
1
1
1
1
1
1
1
1
1
1
1
1
1
1
1
1
1
1
1
1
1
1
1
1
1
1
1
1
1
1
1
1
1
1
1
1
1
1
1
1
1
1
1
1
1
1
1
1
1
1
1
1
1
1
1
1
1
1
1
1
1
1
1
1
1
1
1
1
1
1
1
1
1
1
1
1
1
1
1
1
1
1
1
1
1
1
1
1
1
1
1
1
1
1
1
1
1
1
1
1
1
1
1
1
1
1
1
1
1
1
1
1
1
1
1
1
1
1
1
1
1
1
1
1
1
1
1
1
1
1
1
1
1
1
1
1
1
1
1
1
1
1
1
1
1
1
1
1
1
1
1
1
1
1
1
1
1
1
1
1
1
1
1
1
1
1
1
1
1
1
1
1
1
1
1
1
1
1
1
1
1
1
1
1
1
1
1
1
1
1
1
1
1
1
1
1
1
1
1
1
1
1
1
1
1
1
1
1
1
1
1
1
0.999998
1
1
1
1
1
1
1
1
1
1
1
1
1
1
1
1
1
1
1
1
1
1
1
1
1
1
1
1
1
1
1
1
1
1
1
1
1
1
1
1
1
1
1
1
1
1
1
0.999982
1
1
1
1
1
1
1
1
1
1
1
1
1
1
1
1
1
1
1
1
1
1
1
1
1
1
1
1
1
1
1
1
1
1
1
1
1
1
1
1
1
1
1
1
1
1
1
0.99994
1
1
1
1
1
1
1
1
1
1
1
1
1
1
1
1
1
1
1
1
1
1
1
1
1
1
1
1
1
1
1
1
1
1
1
1
1
1
1
1
1
1
1
1
1
1
1.0003
1.00614
1
1
1
1
1
1
1
1
1
1
1
1
1
1
1
1
1
1
1
1
1
1
1
1
1
1
1
1
1
1
1
1
1
1
1
1
1
1
1
1
1
1
1
1
1
1.00094
1.01975
1.1385
1
1
1
1
1
1
1
1
1
1
1
1
1
1
1
1
1
1
1
1
1
1
1
1
1
1
1
1
1
1
1
1
1
1
1
1
1
1
1
1
1
1
1
1.00003
1.00151
1.039
1.19938
1.4226
1
1
1
1
1
1
1
1
1
1
1
1
1
1
1
1
1
1
1
1
1
1
1
1
1
1
1
1
1
1
1
1
1
1
1
1
1
1
1
1
1
1
1.00009
1.00555
1.06
1.25861
1.44219
1.54306
1
1
1
1
1
1
1
1
1
1
1
1
1
1
1
1
1
1
1
1
1
1
1
1
1
1
1
1
1
1
1
1
1
1
1
1
1
1
1
1
1
1.00058
1.01343
1.1142
1.31287
1.48693
1.54051
1.54769
1
1
1
1
1
1
1
1
1
1
1
1
1
1
1
1
1
1
1
1
1
1
1
1
1
1
1
1
1
1
1
1
1
1
1
1
1
1
1
1.00004
1.00202
1.03381
1.18655
1.39209
1.49822
1.53015
1.5523
1.55617
1
1
1
1
1
1
1
1
1
1
1
1
1
1
1
1
1
1
1
1
1
1
1
1
1
1
1
1
1
1
1
1
1
1
1
1
1
1
1.00027
1.00829
1.08215
1.26158
1.43785
1.52266
1.55649
1.56113
1.5606
1.55909
1
1
1
1
1
1
1
1
1
1
1
1
1
1
1
1
1
1
1
1
1
1
1
1
1
1
1
1
1
1
1
1
1
1
1
0.999999
1.00002
1.00187
1.02888
1.15557
1.35085
1.48902
1.549
1.55221
1.55433
1.5559
1.55529
1.55468
1
1
1
1
1
1
1
1
1
1
1
1
1
1
1
1
1
1
1
1
1
1
1
1
1
1
1
1
1
1
1
1
1
1
1
1.00048
1.00904
1.0775
1.25397
1.43511
1.52296
1.53416
1.54067
1.54719
1.55229
1.55523
1.55627
1.55608
1
1
1
1
1
1
1
1
1
1
1
1
1
1
1
1
1
1
1
1
1
1
1
1
1
1
1
1
1
1
1
1
0.999999
1.00012
1.00278
1.04004
1.17891
1.36159
1.47415
1.52012
1.54851
1.55596
1.55471
1.55533
1.5565
1.55771
1.55847
1.55834
1
1
1
1
1
1
1
1
1
1
1
1
1
1
1
1
1
1
1
1
1
1
1
1
1
1
1
1
1
1
0.999999
1.00003
1.001
1.0209
1.11436
1.29325
1.43877
1.51722
1.54996
1.55531
1.55684
1.55829
1.55784
1.55736
1.55719
1.55769
1.55841
1.55845
1
1
1
1
1
1
1
1
1
1
1
1
1
1
1
1
1
1
1
1
1
1
1
1
1
1
1
1
0.999999
1
1.00044
1.01221
1.0725
1.24125
1.39944
1.50549
1.54515
1.54688
1.54932
1.55102
1.55203
1.5536
1.55466
1.55537
1.55635
1.55779
1.55963
1.55995
1
1
1
1
1
1
1
1
1
1
1
1
1
1
1
1
1
1
1
1
1
1
1
1
1
0.999999
1
0.999997
1.00031
1.0072
1.05125
1.20194
1.36117
1.49163
1.52436
1.53615
1.54188
1.54826
1.55198
1.55412
1.55571
1.55703
1.55821
1.55914
1.56009
1.56104
1.56288
1.56334
1
1
1
1
1
1
1
1
1
1
1
1
1
1
1
1
1
1
1
1
1
1
1
0.999999
1
0.999996
1.00027
1.00412
1.04405
1.1786
1.34028
1.45926
1.50766
1.53697
1.55404
1.55612
1.55597
1.55774
1.56001
1.56186
1.56309
1.56327
1.56325
1.56358
1.56438
1.56557
1.56731
1.56774
1
1
1
1
1
1
1
1
1
1
1
1
1
1
1
1
1
1
1
1
1
1
1
0.999995
1.00015
1.00304
1.04425
1.15768
1.32687
1.44321
1.51556
1.54674
1.55671
1.55942
1.56312
1.56315
1.56282
1.56365
1.56549
1.56701
1.56786
1.56825
1.5683
1.56836
1.56894
1.56996
1.57143
1.57192
1
1
1
1
1
1
1
1
1
1
1
1
1
1
1
1
1
1
1
1
1
0.999995
1.00008
1.00375
1.04033
1.14768
1.324
1.44775
1.52789
1.55264
1.55589
1.55872
1.56055
1.56119
1.5628
1.56446
1.56608
1.56806
1.56992
1.57127
1.57199
1.57278
1.57362
1.57413
1.57466
1.57534
1.57648
1.57679
1
1
1
1
1
1
1
1
1
1
1
1
1
1
1
1
1
0.999999
0.999999
0.999995
1.00009
1.0049
1.03604
1.16335
1.32806
1.45914
1.53437
1.54633
1.55781
1.56061
1.562
1.56417
1.5654
1.56683
1.56905
1.57168
1.57419
1.57609
1.57731
1.57804
1.57843
1.579
1.57962
1.57999
1.58025
1.58055
1.58109
1.58103
1
1
1
1
1
1
1
1
1
1
1
1
1
1
1
0.999999
0.999999
0.999993
1.00015
1.00396
1.042
1.1856
1.33688
1.48101
1.52705
1.54965
1.56179
1.57233
1.57353
1.57186
1.5722
1.57333
1.57452
1.57614
1.57775
1.5792
1.58059
1.58188
1.58292
1.58322
1.58319
1.58313
1.58297
1.58273
1.58267
1.58272
1.58277
1.58274
1
1
1
1
1
1
1
1
1
1
1
1
1
0.999999
0.999999
0.999989
1.00018
1.00418
1.05665
1.18926
1.37193
1.48548
1.54337
1.57857
1.5831
1.58321
1.58013
1.57862
1.57899
1.57932
1.57987
1.58021
1.581
1.58171
1.58196
1.58216
1.58253
1.58331
1.58428
1.58472
1.58468
1.58431
1.58369
1.58356
1.58353
1.58349
1.58334
1.58345
1
1
1
1
1
1
1
1
1
1
1
0.999999
0.999999
0.999988
1.00013
1.00744
1.0721
1.21397
1.4005
1.50607
1.58296
1.5979
1.59747
1.59293
1.58911
1.58497
1.5799
1.57825
1.57864
1.58014
1.58202
1.58415
1.58489
1.58473
1.58403
1.5833
1.58313
1.58314
1.58372
1.58412
1.58398
1.58343
1.58278
1.58238
1.58215
1.58199
1.58159
1.58219
1
1
1
1
1
1
1
1
1
0.999999
0.999999
0.999981
1.00027
1.01205
1.0763
1.26167
1.43272
1.5558
1.60625
1.60183
1.59864
1.59322
1.58606
1.58189
1.57922
1.57784
1.57713
1.5777
1.57903
1.58079
1.58293
1.58479
1.58481
1.58444
1.58372
1.58281
1.58193
1.58144
1.58149
1.58161
1.58146
1.58074
1.57969
1.57861
1.57766
1.5771
1.57642
1.57736
1
1
1
1
1
1
1
1
1
0.999969
1.00088
1.01556
1.1112
1.29871
1.45978
1.58959
1.60935
1.61757
1.61317
1.60595
1.59136
1.58048
1.57386
1.57087
1.57128
1.57191
1.57344
1.57575
1.57747
1.57848
1.57937
1.57962
1.57959
1.57914
1.5783
1.57742
1.57627
1.57533
1.5751
1.57517
1.57521
1.5748
1.57378
1.57242
1.57091
1.56974
1.5689
1.56975
1
1
1
1
0.999999
1
1
1.00003
1.00203
1.02637
1.15638
1.3296
1.51723
1.58207
1.60741
1.6042
1.5925
1.58946
1.58427
1.57607
1.57381
1.56952
1.56711
1.56595
1.56633
1.56663
1.56765
1.56916
1.56952
1.5693
1.56884
1.56823
1.5678
1.56715
1.56628
1.5654
1.5643
1.56345
1.56326
1.56338
1.56373
1.56376
1.56337
1.56241
1.5613
1.56034
1.55966
1.56064
1
0.999993
1.00002
1.00003
1.00045
1.00465
1.02146
1.07448
1.18286
1.34511
1.50016
1.58144
1.62569
1.62416
1.61377
1.59669
1.57997
1.55909
1.54708
1.54677
1.54798
1.5506
1.55384
1.55451
1.55478
1.55465
1.55458
1.55487
1.55465
1.55438
1.55422
1.55447
1.55452
1.55428
1.55375
1.55302
1.55245
1.55228
1.55237
1.55285
1.55371
1.55437
1.55442
1.55411
1.55358
1.55294
1.55209
1.5529
1.00069
1.00469
1.02563
1.06907
1.12816
1.21634
1.29964
1.37953
1.45179
1.50678
1.52848
1.5576
1.56924
1.56344
1.55325
1.54595
1.54078
1.53526
1.53334
1.53326
1.53453
1.5372
1.53985
1.54135
1.54225
1.54298
1.54415
1.54436
1.54428
1.54455
1.54545
1.5466
1.54746
1.54783
1.54773
1.54726
1.54666
1.54648
1.54661
1.54708
1.54767
1.54808
1.54814
1.54806
1.54786
1.54743
1.54688
1.54733
1.07772
1.18132
1.28577
1.37639
1.47746
1.55801
1.61808
1.67003
1.69616
1.69016
1.65952
1.61267
1.57222
1.54047
1.52637
1.51382
1.51283
1.51514
1.52022
1.52578
1.53059
1.5328
1.534
1.53534
1.5373
1.53955
1.54122
1.54183
1.54214
1.54306
1.54503
1.54663
1.547
1.54701
1.54663
1.54551
1.54444
1.54408
1.54409
1.54431
1.54457
1.5449
1.54525
1.54539
1.54549
1.54548
1.54541
1.54558
1.40361
1.23955
1.08566
1.03575
1.01376
0.99063
0.99647
1.02907
1.05011
1.05473
1.06567
1.09502
1.11451
1.11383
1.11315
1.11665
1.11592
1.11531
1.11751
1.12059
1.12025
1.11918
1.11785
1.11718
1.11459
1.10922
1.10687
1.10703
1.10696
1.10678
1.10596
1.10529
1.10499
1.10418
1.10324
1.10319
1.10341
1.10442
1.10496
1.1049
1.1047
1.10406
1.10324
1.10315
1.10319
1.10336
1.10338
1.10375
1.10541
1.14498
1.3571
1.61623
1.82256
2.04663
2.23323
2.22387
2.1745
2.10574
2.08925
2.08651
2.07687
2.05268
2.02636
2.01399
2.0059
1.99981
1.99304
1.98405
1.9731
1.95312
1.9243
1.90833
1.90177
1.89624
1.89265
1.88692
1.87824
1.86515
1.84054
1.81492
1.80564
1.80069
1.79868
1.80027
1.79666
1.79039
1.78057
1.75846
1.72957
1.71733
1.71218
1.70785
1.7052
1.70143
1.69619
1.69015
1.67924
1.66179
1.64942
1.64304
1.63721
1.63075
1.62293
1.61219
1.59786
1.58609
1.58029
1.57632
1.57284
1.56952
1.56552
1.5598
1.54971
1.53281
1.519
1.51334
1.51006
1.50744
1.5051
1.50191
1.49663
1.48747
1.47349
1.46147
1.45534
1.45126
1.44766
1.4439
1.43911
1.43134
1.41938
1.41053
1.40708
1.4046
1.40202
1.39902
1.3947
1.38598
1.37101
1.36119
1.35778
1.35522
1.35274
1.3503
1.34822
1.34644
1.34454
1.34142
1.33201
1.31662
1.3056
1.30015
1.29678
1.29405
1.29149
1.28903
1.28671
1.28411
1.28116
1.27746
1.27105
1.26125
1.25222
1.24579
1.24141
1.23938
1.23802
1.23899
1.244
1.26133
1.29602
1.34233
1.40371
1.46271
1.51306
1.55761
1.59789
1.63193
1.65615
1.67231
1.68086
1.67823
1.67129
1.66558
1.65534
1.64656
1.6487
1.6511
1.64901
1.6445
1.63707
1.61702
1.50018
1.42491
1.32276
1.23527
1.19498
1.14322
1.0975
1.09124
1.07455
1.05663
1.05565
1.06255
1.06758
1.06897
1.0718
1.0788
1.08406
1.0871
1.09168
1.09928
1.1036
1.10364
1.1037
1.10393
1.10335
1.10098
1.1005
1.10087
1.1012
1.10133
1.10106
1.10112
1.10127
1.10083
1.10013
1.09982
1.09988
1.10004
1.10001
1.09998
1.09981
1.09917
1.09872
1.09869
1.0987
1.09858
1.09953
1.1045
1.13994
1.32063
1.53033
1.58367
1.67277
1.78136
1.9505
2.07049
2.12558
2.11851
2.11062
2.09847
2.08039
2.0581
2.03733
2.0217
2.00842
1.99823
1.99006
1.9831
1.9733
1.95817
1.93483
1.91372
1.90357
1.8974
1.89151
1.88558
1.87727
1.86616
1.84848
1.82527
1.81075
1.80508
1.8006
1.79724
1.79339
1.78689
1.77777
1.7619
1.73892
1.72304
1.71623
1.7117
1.70701
1.70196
1.69712
1.69167
1.68227
1.66745
1.65558
1.64832
1.64187
1.63498
1.62685
1.61612
1.6032
1.59194
1.58476
1.57927
1.57451
1.57012
1.56619
1.5615
1.5514
1.53561
1.52319
1.51711
1.51262
1.50801
1.50404
1.501
1.49751
1.49035
1.47786
1.46666
1.46091
1.4564
1.45211
1.44809
1.44333
1.43653
1.42649
1.41691
1.412
1.40874
1.40559
1.40208
1.3976
1.38996
1.3758
1.36318
1.35876
1.35635
1.35404
1.35175
1.34934
1.34651
1.34318
1.3387
1.33083
1.31865
1.30954
1.30538
1.30249
1.29928
1.2962
1.29325
1.2904
1.28737
1.28417
1.28025
1.27454
1.26538
1.25722
1.25143
1.24879
1.25051
1.25709
1.27571
1.30683
1.34553
1.38196
1.40872
1.43599
1.44845
1.46219
1.48383
1.51049
1.54004
1.56939
1.58834
1.59667
1.6012
1.60375
1.61066
1.61784
1.62601
1.63686
1.64548
1.64771
1.64406
1.63656
1.62002
1.53808
1.49784
1.43476
1.35552
1.29287
1.23092
1.16294
1.12973
1.10484
1.06805
1.0488
1.05104
1.04858
1.04478
1.04639
1.05024
1.05372
1.05775
1.06354
1.07451
1.08217
1.08255
1.08289
1.08448
1.08555
1.08585
1.08701
1.08859
1.09048
1.09163
1.09164
1.09146
1.09077
1.0901
1.09
1.08992
1.08995
1.08977
1.08969
1.0897
1.08931
1.08908
1.08912
1.08921
1.08958
1.09173
1.10741
1.17688
1.32313
1.52428
1.5971
1.59998
1.60678
1.62592
1.70693
1.90489
2.08647
2.1508
2.13905
2.1096
2.08335
2.07032
2.05601
2.03829
2.01966
2.00218
1.99209
1.98382
1.97308
1.96047
1.94619
1.92727
1.91121
1.90327
1.8964
1.88768
1.87699
1.86501
1.85291
1.83852
1.82214
1.81201
1.80641
1.80002
1.7921
1.78255
1.77175
1.76055
1.74875
1.73518
1.72438
1.71824
1.71316
1.70723
1.69971
1.68967
1.67801
1.66661
1.65651
1.64739
1.63921
1.63139
1.62253
1.61191
1.60249
1.59621
1.59035
1.58511
1.58054
1.57501
1.56737
1.55775
1.54627
1.53471
1.527
1.52088
1.51504
1.5103
1.50628
1.50088
1.49359
1.48484
1.47495
1.46766
1.46173
1.45528
1.44856
1.4436
1.43945
1.4339
1.4256
1.41615
1.40966
1.40589
1.4022
1.39811
1.39349
1.38679
1.37587
1.36712
1.36392
1.36128
1.35866
1.35589
1.35296
1.34939
1.34369
1.33493
1.32468
1.31535
1.31056
1.30683
1.30226
1.29756
1.2933
1.28973
1.28669
1.28336
1.28015
1.27628
1.27128
1.26606
1.25995
1.26089
1.26866
1.29335
1.32875
1.37165
1.40854
1.43515
1.45247
1.45389
1.44634
1.44196
1.44262
1.44726
1.45675
1.46875
1.48363
1.50013
1.5197
1.54246
1.56443
1.58445
1.60666
1.62216
1.63038
1.63632
1.6392
1.63885
1.63661
1.62526
1.55583
1.53752
1.49952
1.4402
1.37953
1.32038
1.25318
1.2107
1.17975
1.13417
1.09871
1.09049
1.07417
1.05264
1.0519
1.05167
1.04694
1.04505
1.04723
1.05269
1.05667
1.05851
1.06059
1.06503
1.06921
1.07246
1.07553
1.07806
1.0797
1.08092
1.08161
1.08158
1.08153
1.08178
1.08276
1.08368
1.08376
1.08353
1.08302
1.08202
1.08066
1.08033
1.08041
1.08081
1.08297
1.10251
1.23864
1.39874
1.52129
1.59736
1.61242
1.6118
1.61159
1.61227
1.61502
1.6644
1.84227
2.05697
2.1052
2.09846
2.09499
2.08721
2.07394
2.05584
2.03595
2.0172
2.001
1.98865
1.9772
1.96559
1.95507
1.94379
1.92798
1.91158
1.90065
1.8908
1.88005
1.86989
1.86165
1.85269
1.83955
1.82362
1.80935
1.79987
1.79047
1.78025
1.77073
1.76372
1.75824
1.75073
1.73981
1.72619
1.71479
1.70679
1.69832
1.68791
1.67766
1.66937
1.66202
1.65391
1.64436
1.63421
1.62446
1.61591
1.60966
1.60398
1.59729
1.5898
1.5823
1.57465
1.56497
1.55395
1.54613
1.54097
1.53546
1.52897
1.52259
1.51629
1.50898
1.50017
1.49022
1.48256
1.47765
1.47294
1.46717
1.45982
1.45127
1.44354
1.4391
1.43537
1.42963
1.42004
1.41143
1.40746
1.40418
1.39999
1.394
1.38617
1.37898
1.37255
1.36425
1.35746
1.35461
1.35213
1.34944
1.34618
1.34011
1.3295
1.32222
1.31939
1.31641
1.31187
1.30528
1.29884
1.29452
1.29121
1.28839
1.28537
1.28236
1.27895
1.27355
1.27576
1.28719
1.3159
1.35254
1.39385
1.42772
1.45762
1.47471
1.47536
1.46773
1.46228
1.45934
1.45745
1.45482
1.45006
1.44602
1.44396
1.44475
1.44734
1.45299
1.46549
1.4802
1.4952
1.52051
1.54754
1.56468
1.58201
1.59781
1.61444
1.61615
1.61433
1.56605
1.55963
1.54032
1.49978
1.44952
1.39695
1.33146
1.2851
1.25161
1.20359
1.1582
1.13562
1.11254
1.07816
1.06695
1.06337
1.05221
1.04589
1.04793
1.0516
1.05059
1.0496
1.05011
1.05286
1.05799
1.06317
1.06784
1.07217
1.07411
1.07531
1.07637
1.07626
1.07611
1.07719
1.07947
1.08034
1.08045
1.08038
1.07995
1.07889
1.07736
1.07692
1.077
1.07859
1.09619
1.23778
1.47354
1.56461
1.60389
1.61975
1.61749
1.6145
1.61139
1.61141
1.61296
1.60756
1.62662
1.76054
1.96703
2.07261
2.10491
2.09922
2.08173
2.06372
2.04986
2.03406
2.01402
1.9937
1.98068
1.97076
1.96094
1.95072
1.93875
1.92082
1.90287
1.89256
1.88416
1.87593
1.86708
1.85825
1.849
1.83363
1.81234
1.79738
1.78872
1.78128
1.775
1.76967
1.76482
1.76009
1.75177
1.73602
1.71759
1.70517
1.69607
1.68809
1.68091
1.67394
1.66624
1.65635
1.64399
1.63402
1.62712
1.62205
1.61765
1.61316
1.60758
1.59915
1.58733
1.57434
1.56296
1.55406
1.54671
1.54081
1.53614
1.53182
1.52736
1.52247
1.51409
1.50162
1.49012
1.48171
1.47519
1.47002
1.46569
1.46099
1.45389
1.44683
1.44086
1.43449
1.42869
1.42314
1.41589
1.40842
1.40402
1.40014
1.39478
1.38831
1.38263
1.37642
1.36833
1.36073
1.35603
1.35287
1.34927
1.34435
1.33722
1.32869
1.32205
1.31756
1.31376
1.30936
1.30325
1.29814
1.29622
1.29449
1.29352
1.29245
1.2898
1.2928
1.30754
1.33856
1.37947
1.41831
1.44589
1.47283
1.48207
1.48155
1.48287
1.48177
1.48002
1.47916
1.47648
1.46962
1.45851
1.44919
1.44519
1.4423
1.44101
1.44195
1.44173
1.44177
1.43997
1.43696
1.44048
1.45099
1.46888
1.49578
1.52373
1.55391
1.57466
1.59674
1.57458
1.57069
1.56269
1.54071
1.50377
1.46062
1.40543
1.35468
1.31543
1.26982
1.2258
1.19837
1.17227
1.13273
1.11404
1.10475
1.08883
1.06973
1.06915
1.06584
1.05807
1.05215
1.05106
1.05052
1.05128
1.05428
1.06032
1.06636
1.06917
1.07095
1.0732
1.07405
1.07441
1.07634
1.0789
1.0796
1.08008
1.08038
1.08016
1.07888
1.07759
1.07772
1.08104
1.10939
1.2329
1.48726
1.5972
1.62456
1.6384
1.6338
1.61675
1.61274
1.61307
1.60921
1.60691
1.60534
1.59595
1.60199
1.67677
1.86156
2.01403
2.05917
2.06918
2.06931
2.05791
2.04022
2.01914
1.99642
1.98177
1.97289
1.96376
1.95413
1.94311
1.92725
1.90631
1.89304
1.88527
1.87789
1.87055
1.86314
1.85398
1.83947
1.81681
1.79766
1.78988
1.78418
1.779
1.7743
1.7684
1.76124
1.75173
1.73567
1.71643
1.70505
1.6977
1.69157
1.68619
1.68067
1.67224
1.65835
1.645
1.63771
1.63313
1.62852
1.62288
1.6156
1.60683
1.59725
1.58438
1.57132
1.56248
1.55582
1.54951
1.54373
1.53979
1.53719
1.53401
1.52614
1.51296
1.49909
1.48985
1.48356
1.47812
1.4724
1.46726
1.46417
1.46059
1.45405
1.44411
1.43583
1.43047
1.42568
1.4197
1.41075
1.40276
1.39962
1.39697
1.39338
1.38873
1.38273
1.37535
1.36712
1.3593
1.3537
1.34879
1.34283
1.33582
1.329
1.32343
1.31902
1.31504
1.3102
1.30525
1.3017
1.30067
1.30035
1.3018
1.31012
1.33511
1.36848
1.41246
1.44818
1.47811
1.49644
1.49702
1.49116
1.48962
1.4906
1.49401
1.49456
1.49239
1.4886
1.48103
1.47048
1.45989
1.45153
1.44806
1.44724
1.44451
1.44217
1.44017
1.43625
1.43267
1.43173
1.42843
1.42002
1.41746
1.42074
1.43121
1.45023
1.47285
1.51908
1.58088
1.57878
1.57592
1.56545
1.54371
1.51032
1.46323
1.42016
1.37874
1.3294
1.28844
1.25733
1.22734
1.1905
1.16726
1.15001
1.1273
1.09976
1.09181
1.08305
1.06902
1.05953
1.05878
1.05628
1.05557
1.05736
1.06079
1.06212
1.06282
1.0641
1.06652
1.06982
1.07327
1.0778
1.08073
1.08116
1.08158
1.08218
1.08193
1.08014
1.07943
1.08443
1.15157
1.29519
1.48291
1.61967
1.64487
1.64795
1.64647
1.64195
1.6224
1.60872
1.6079
1.60736
1.6023
1.59837
1.59389
1.58451
1.57587
1.60804
1.74823
1.92789
2.02218
2.05529
2.05342
2.03852
2.01784
1.99585
1.98015
1.97095
1.96164
1.95167
1.94135