/*--------------------------------*- C++ -*----------------------------------*\
  =========                 |
  \\      /  F ield         | OpenFOAM: The Open Source CFD Toolbox
   \\    /   O peration     | Website:  https://openfoam.org
    \\  /    A nd           | Version:  7
     \\/     M anipulation  |
\*---------------------------------------------------------------------------*/
FoamFile
{
    version     2.0;
    format      ascii;
    class       volVectorField;
    location    "1.3";
    object      U;
}
// * * * * * * * * * * * * * * * * * * * * * * * * * * * * * * * * * * * * * //

dimensions      [0 1 -1 0 0 0 0];

internalField   nonuniform List<vector> 
18432
(
(3 5.61315e-17 0)
(3 3.83181e-17 0)
(3 -3.0644e-17 0)
(3 -2.38848e-16 0)
(3 -3.54721e-16 0)
(3 -3.97047e-16 0)
(3 -6.26286e-16 0)
(3 -6.12895e-16 0)
(3 -4.96144e-16 0)
(3 -1.29586e-16 0)
(3 9.46118e-17 0)
(3 4.68665e-16 0)
(3 8.63856e-16 0)
(3 1.30572e-15 0)
(3 8.58647e-16 0)
(3 1.17686e-16 0)
(3 -4.27088e-16 0)
(3 -4.54501e-16 0)
(3 2.57757e-16 0)
(3 2.89457e-16 0)
(3 6.05176e-17 0)
(3 -2.99952e-16 0)
(3 -7.15957e-16 0)
(3 -1.28031e-15 0)
(3 -1.24724e-15 0)
(3 -9.2579e-16 0)
(3 -4.13756e-16 0)
(3 1.42085e-16 0)
(3 1.26632e-16 0)
(3 5.47259e-16 0)
(3 7.66776e-16 0)
(3 4.95753e-16 0)
(3 4.70814e-16 0)
(3 5.09836e-16 0)
(3 1.97069e-16 0)
(3 -2.225e-17 0)
(3 -5.32975e-16 0)
(3 -3.64981e-16 0)
(3 7.72011e-17 0)
(3 4.61306e-16 0)
(3 7.00489e-16 0)
(3 7.90697e-16 0)
(3 8.9795e-16 0)
(3 8.62191e-16 0)
(3 7.24171e-16 0)
(3 6.28536e-16 0)
(3 -4.21246e-16 0)
(3 -3.49992e-16 0)
(3 -1.08095e-17 0)
(3 7.77754e-17 0)
(3 -1.32441e-16 0)
(3 -1.32727e-15 0)
(3 -1.83722e-15 0)
(3 -1.18529e-15 0)
(3 -8.42061e-16 0)
(3 -4.81938e-16 0)
(3 -5.03648e-16 0)
(3 -5.72657e-16 0)
(3 -8.92459e-17 0)
(3 5.11551e-16 0)
(3 1.4521e-15 0)
(3 2.10129e-15 0)
(3 2.06496e-15 0)
(3 5.99069e-16 0)
(3 -1.23164e-16 0)
(3 -1.63211e-16 0)
(3 3.91948e-16 0)
(3 -3.73139e-17 0)
(3 -9.53134e-16 0)
(3 -8.26492e-16 0)
(3 -1.14224e-15 0)
(3 -1.74427e-15 0)
(3 -1.84853e-15 0)
(3 -1.89665e-15 0)
(3 -1.10259e-15 0)
(3 -6.0297e-16 0)
(3 -6.47559e-16 0)
(3 1.96674e-16 0)
(3 4.11215e-16 0)
(3 -1.39626e-16 0)
(3 -3.77602e-16 0)
(3 -5.45297e-16 0)
(3 -9.50497e-16 0)
(3 -1.18913e-15 0)
(3 -1.03004e-15 0)
(3 -3.91781e-16 0)
(3 2.39909e-16 0)
(3 2.20167e-16 0)
(3 8.45958e-16 0)
(3 1.14797e-15 0)
(3 9.65364e-16 0)
(3 6.41169e-16 0)
(3 4.28617e-16 0)
(3 5.65684e-16 0)
(3 5.154e-17 0)
(3 -7.6517e-16 0)
(3 -7.11525e-17 0)
(3 6.30888e-17 0)
(3 3.01311e-17 0)
(3 -3.01575e-16 0)
(3 -2.57175e-16 0)
(3 -2.08288e-16 0)
(3 4.68421e-16 0)
(3 7.90784e-16 0)
(3 2.52724e-16 0)
(3 1.78352e-16 0)
(3 3.1943e-16 0)
(3 2.87737e-16 0)
(3 6.53419e-16 0)
(3 9.74742e-16 0)
(3 1.10079e-15 0)
(3 1.04207e-15 0)
(3 5.84571e-16 0)
(3 6.56332e-16 0)
(3 1.00455e-16 0)
(3 2.77442e-16 0)
(3 9.58365e-16 0)
(3 7.526e-16 0)
(3 -1.86131e-16 0)
(3 -2.84291e-16 0)
(3 -1.49855e-16 0)
(3 -9.92374e-17 0)
(3 1.02933e-17 0)
(3 -1.24986e-15 0)
(3 -1.43707e-15 0)
(3 -1.12284e-15 0)
(3 -9.47654e-16 0)
(3 -9.16075e-16 0)
(3 -1.37785e-15 0)
(3 -1.30005e-15 0)
(3 -7.71364e-16 0)
(3 -4.02425e-16 0)
(3 5.95163e-16 0)
(3 8.50609e-16 0)
(3 2.33045e-16 0)
(3 -1.61247e-16 0)
(3 -2.44569e-16 0)
(3 -1.05378e-16 0)
(3 -4.9171e-17 0)
(3 -5.78204e-16 0)
(3 -7.08658e-16 0)
(3 -3.56497e-16 0)
(3 -2.5109e-16 0)
(3 -1.16804e-15 0)
(3 3.29356e-17 0)
(3 -4.94315e-17 0)
(3 -4.08105e-17 0)
(3 5.02858e-16 0)
(3 9.02067e-16 0)
(3 8.03094e-16 0)
(3 1.11406e-15 0)
(3 1.2546e-15 0)
(3 1.31917e-15 0)
(3 1.24034e-15 0)
(3 1.19143e-15 0)
(3 7.39979e-16 0)
(3 5.4257e-16 0)
(3 3.17882e-16 0)
(3 -1.00757e-16 0)
(3 -3.17858e-16 0)
(3 -5.76358e-17 0)
(3 3.46499e-16 0)
(3 8.34982e-16 0)
(3 1.04827e-15 0)
(3 9.73636e-16 0)
(3 2.00071e-16 0)
(3 -5.7829e-16 0)
(3 -1.60983e-16 0)
(3 -3.73637e-17 0)
(3 4.27187e-16 0)
(3 3.31322e-16 0)
(3 -2.87421e-16 0)
(3 -1.0544e-15 0)
(3 -7.9786e-16 0)
(3 -3.48748e-16 0)
(3 -8.68453e-17 0)
(3 2.37596e-17 0)
(3 4.38647e-17 0)
(3 7.97182e-16 0)
(3 1.8357e-15 0)
(3 1.57732e-15 0)
(3 9.3103e-16 0)
(3 1.90046e-16 0)
(3 -3.62492e-16 0)
(3 -1.31291e-15 0)
(3 -1.421e-15 0)
(3 -9.41434e-16 0)
(3 -5.91255e-16 0)
(3 1.62563e-16 0)
(3 7.72422e-16 0)
(3 1.19132e-15 0)
(3 -3.70023e-16 0)
(3 -3.31315e-17 0)
(3 -3.34961e-16 0)
(3 -5.59857e-16 0)
(3 -3.93892e-16 0)
(3 2.09604e-16 0)
(3 6.42678e-16 0)
(3 4.50408e-16 0)
(3 1.61105e-16 0)
(3 1.42339e-17 0)
(3 -2.51722e-16 0)
(3 -5.50878e-17 0)
(3 4.31882e-16 0)
(3 2.2151e-16 0)
(3 -3.36027e-16 0)
(3 -2.06142e-16 0)
(3 -3.78702e-16 0)
(3 -4.52097e-16 0)
(3 -2.86965e-17 0)
(3 6.89005e-16 0)
(3 2.87092e-16 0)
(3 -7.25555e-16 0)
(3 -8.54973e-16 0)
(3 -8.14848e-16 0)
(3 -4.64211e-16 0)
(3 -8.17071e-16 0)
(3 -7.95422e-16 0)
(3 -8.97091e-16 0)
(3 4.72474e-16 0)
(3 4.53945e-16 0)
(3 3.69611e-16 0)
(3 5.29891e-16 0)
(3 1.30186e-15 0)
(3 1.66696e-15 0)
(3 1.39721e-15 0)
(3 1.74322e-15 0)
(3 2.6505e-15 0)
(3 2.24896e-15 0)
(3 5.69624e-16 0)
(3 4.59985e-16 0)
(3 -8.15858e-17 0)
(3 -1.32284e-15 0)
(3 -2.11678e-15 0)
(3 -2.21437e-15 0)
(3 -5.87858e-16 0)
(3 1.00363e-15 0)
(3 4.23676e-16 0)
(3 6.34039e-16 0)
(3 6.82035e-16 0)
(3 -6.27948e-17 0)
(3 -3.65861e-16 0)
(3 -2.56321e-16 0)
(3 -1.57794e-16 0)
(3 -4.29009e-16 0)
(3 1.52752e-16 0)
(3 3.16697e-17 0)
(3 1.54392e-16 0)
(3 -1.03479e-15 0)
(3 -1.55278e-15 0)
(3 -1.48159e-15 0)
(3 -1.23191e-15 0)
(3 -1.24161e-15 0)
(3 -1.38945e-15 0)
(3 -1.28371e-15 0)
(3 -7.89818e-16 0)
(3 -3.78559e-16 0)
(3 -4.86393e-16 0)
(3 -8.61459e-16 0)
(3 -1.2857e-15 0)
(3 -7.08935e-17 0)
(3 1.05836e-15 0)
(3 1.47572e-15 0)
(3 2.61907e-16 0)
(3 -8.07344e-17 0)
(3 1.33012e-16 0)
(3 5.99355e-16 0)
(3 1.29712e-15 0)
(3 1.81773e-15 0)
(3 1.39149e-15 0)
(3 1.34965e-15 0)
(3 2.21354e-15 0)
(3 2.6743e-15 0)
(3 2.60094e-15 0)
(3 2.38036e-15 0)
(3 2.05735e-15 0)
(3 1.51637e-15 0)
(3 8.82628e-16 0)
(3 6.22075e-16 0)
(3 7.838e-16 0)
(3 3.4433e-16 0)
(3 3.43947e-17 0)
(3 -8.59601e-16 0)
(3 -9.76431e-16 0)
(3 -2.11376e-15 0)
(3 -2.17067e-15 0)
(3 -2.17147e-15 0)
(3 -3.78938e-16 0)
(3 -6.11284e-17 0)
(3 -1.19302e-16 0)
(3 8.17204e-17 0)
(3 1.69605e-16 0)
(3 -1.17082e-17 0)
(3 -5.57741e-17 0)
(3 -1.01475e-16 0)
(3 2.82108e-17 0)
(3 -2.3406e-16 0)
(3 -3.35233e-16 0)
(3 -7.03677e-16 0)
(3 -1.1491e-15 0)
(3 -8.68698e-16 0)
(3 -9.73978e-16 0)
(3 -1.20148e-15 0)
(3 -9.99679e-16 0)
(3 -4.04402e-16 0)
(3 -2.80373e-16 0)
(3 -1.14083e-15 0)
(3 -9.14413e-16 0)
(3 -1.34821e-16 0)
(3 1.27992e-15 0)
(3 2.14607e-15 0)
(3 1.974e-15 0)
(3 1.36885e-15 0)
(3 1.30298e-15 0)
(3 1.90676e-15 0)
(3 2.1137e-15 0)
(3 2.18575e-15 0)
(3 1.92224e-15 0)
(3 1.51947e-15 0)
(3 1.44213e-15 0)
(3 1.91618e-15 0)
(3 2.29428e-15 0)
(3 2.8432e-15 0)
(3 2.23049e-15 0)
(3 7.63259e-16 0)
(3 -5.768e-16 0)
(3 -4.925e-16 0)
(3 3.00605e-16 0)
(3 7.50593e-16 0)
(3 4.60661e-16 0)
(3 1.2859e-16 0)
(3 -7.07146e-16 0)
(3 -1.66295e-15 0)
(3 -2.68172e-15 0)
(3 -2.87257e-15 0)
(3 -1.35174e-15 0)
(3 2.15351e-17 0)
(3 2.01032e-16 0)
(3 2.66374e-16 0)
(3 3.95614e-16 0)
(3 5.26887e-16 0)
(3 1.50818e-17 0)
(3 -1.00483e-16 0)
(3 -5.98024e-17 0)
(3 2.28972e-16 0)
(3 1.65418e-16 0)
(3 -6.99831e-16 0)
(3 -1.28739e-15 0)
(3 -1.46152e-15 0)
(3 -8.07999e-16 0)
(3 -8.1058e-16 0)
(3 -4.98621e-16 0)
(3 -1.19813e-15 0)
(3 -1.02524e-15 0)
(3 -8.34723e-16 0)
(3 -5.99988e-16 0)
(3 -4.41002e-16 0)
(3 -3.50684e-16 0)
(3 1.03663e-16 0)
(3 1.1205e-15 0)
(3 1.01306e-15 0)
(3 8.22614e-16 0)
(3 1.68653e-15 0)
(3 2.2228e-15 0)
(3 2.67206e-15 0)
(3 3.25029e-15 0)
(3 3.16309e-15 0)
(3 2.20198e-15 0)
(3 1.2994e-15 0)
(3 5.42061e-16 0)
(3 6.67757e-16 0)
(3 1.03048e-15 0)
(3 1.47575e-15 0)
(3 1.23477e-15 0)
(3 1.04027e-15 0)
(3 3.83502e-16 0)
(3 -1.03188e-16 0)
(3 1.31759e-17 0)
(3 6.61042e-16 0)
(3 5.07669e-16 0)
(3 -6.90937e-16 0)
(3 -7.4696e-16 0)
(3 2.20211e-16 0)
(3 8.10951e-17 0)
(3 3.26249e-16 0)
(3 2.36479e-16 0)
(3 -1.73174e-16 0)
(3 -1.39012e-16 0)
(3 -4.45913e-16 0)
(3 -7.78012e-16 0)
(3 -5.78809e-16 0)
(3 1.3389e-17 0)
(3 6.22898e-16 0)
(3 1.89292e-16 0)
(3 -8.84175e-16 0)
(3 -1.23639e-15 0)
(3 -1.28365e-15 0)
(3 -7.31541e-16 0)
(3 -6.54889e-16 0)
(3 -8.75167e-16 0)
(3 -8.94846e-16 0)
(3 -1.3832e-15 0)
(3 -1.31052e-15 0)
(3 -1.00447e-15 0)
(3 -1.00713e-15 0)
(3 -1.36865e-15 0)
(3 -2.0692e-15 0)
(3 -8.99447e-16 0)
(3 6.75586e-16 0)
(3 7.55149e-16 0)
(3 7.88396e-16 0)
(3 1.56886e-15 0)
(3 1.94222e-15 0)
(3 3.81058e-15 0)
(3 4.28503e-15 0)
(3 3.66961e-15 0)
(3 2.10754e-15 0)
(3 5.49957e-16 0)
(3 -4.56007e-16 0)
(3 -2.9836e-16 0)
(3 4.99615e-16 0)
(3 1.38063e-15 0)
(3 1.26489e-15 0)
(3 6.45165e-16 0)
(3 -1.2359e-16 0)
(3 -1.61222e-16 0)
(3 -3.13865e-16 0)
(3 -3.43521e-16 0)
(3 -3.32284e-16 0)
(3 1.04671e-15 0)
(3 5.05354e-16 0)
(3 1.25986e-15 0)
(3 1.61588e-16 0)
(3 3.70222e-16 0)
(3 7.00431e-18 0)
(3 -2.13918e-16 0)
(3 -8.12694e-16 0)
(3 -8.52241e-16 0)
(3 -7.1647e-16 0)
(3 8.10906e-17 0)
(3 2.19621e-16 0)
(3 -1.97183e-17 0)
(3 -4.20314e-16 0)
(3 4.40897e-17 0)
(3 4.86812e-16 0)
(3 2.26461e-16 0)
(3 1.7768e-16 0)
(3 -1.45692e-16 0)
(3 -5.74022e-16 0)
(3 -9.59998e-16 0)
(3 -1.32223e-15 0)
(3 -5.53336e-16 0)
(3 -3.31069e-16 0)
(3 -1.14688e-15 0)
(3 -2.45119e-15 0)
(3 -2.89729e-15 0)
(3 -2.78185e-15 0)
(3 -2.48529e-15 0)
(3 -1.0621e-15 0)
(3 -9.07138e-16 0)
(3 -7.51431e-16 0)
(3 2.07558e-15 0)
(3 3.56605e-15 0)
(3 3.16336e-15 0)
(3 2.53346e-15 0)
(3 1.68534e-15 0)
(3 1.09501e-15 0)
(3 3.23495e-16 0)
(3 6.80236e-16 0)
(3 1.0634e-15 0)
(3 1.04899e-15 0)
(3 1.98214e-16 0)
(3 1.31388e-16 0)
(3 -9.97163e-17 0)
(3 -7.59692e-16 0)
(3 -8.72155e-16 0)
(3 5.06446e-16 0)
(3 1.06663e-15 0)
(3 1.67624e-15 0)
(3 1.85609e-15 0)
(3 -5.83448e-17 0)
(3 2.18864e-16 0)
(3 3.01728e-16 0)
(3 1.53122e-16 0)
(3 -4.54079e-16 0)
(3 -3.92044e-16 0)
(3 -4.02808e-16 0)
(3 -1.28952e-15 0)
(3 -1.8621e-15 0)
(3 -1.40443e-15 0)
(3 -8.8545e-16 0)
(3 7.78862e-17 0)
(3 1.75965e-16 0)
(3 2.49182e-16 0)
(3 6.45644e-16 0)
(3 1.05629e-15 0)
(3 4.52561e-16 0)
(3 4.96282e-17 0)
(3 -2.72951e-16 0)
(3 -6.64356e-16 0)
(3 -1.68359e-15 0)
(3 -1.72648e-15 0)
(3 -2.17574e-15 0)
(3 -2.78812e-15 0)
(3 -3.16536e-15 0)
(3 -3.19885e-15 0)
(3 -2.77375e-15 0)
(3 -2.12321e-15 0)
(3 -1.29015e-15 0)
(3 7.64224e-16 0)
(3 1.23044e-15 0)
(3 2.20338e-15 0)
(3 2.15781e-15 0)
(3 1.44583e-15 0)
(3 1.14995e-15 0)
(3 4.17346e-16 0)
(3 1.20644e-16 0)
(3 -3.63733e-16 0)
(3 -1.1343e-15 0)
(3 -5.10461e-16 0)
(3 -1.01886e-15 0)
(3 -7.03528e-16 0)
(3 -6.27011e-16 0)
(3 -5.3316e-16 0)
(3 3.8126e-16 0)
(3 1.51035e-15 0)
(3 2.01838e-15 0)
(3 2.06837e-15 0)
(3 -2.19158e-17 0)
(3 -1.50346e-16 0)
(3 -2.19255e-17 0)
(3 -1.2622e-16 0)
(3 3.1553e-17 0)
(3 -7.96845e-17 0)
(3 -8.75618e-16 0)
(3 -2.1341e-15 0)
(3 -2.04094e-15 0)
(3 -1.57608e-15 0)
(3 -1.03331e-15 0)
(3 -4.44827e-16 0)
(3 -7.85869e-17 0)
(3 2.63734e-16 0)
(3 5.69159e-16 0)
(3 6.49474e-16 0)
(3 9.51713e-16 0)
(3 1.14758e-15 0)
(3 6.113e-16 0)
(3 -3.78304e-16 0)
(3 -2.40823e-15 0)
(3 -2.82535e-15 0)
(3 -2.56306e-15 0)
(3 -2.64986e-15 0)
(3 -2.54139e-15 0)
(3 -2.36164e-15 0)
(3 -2.17422e-15 0)
(3 -2.26097e-15 0)
(3 -2.73441e-15 0)
(3 -2.16562e-15 0)
(3 -9.83196e-16 0)
(3 -3.69295e-16 0)
(3 7.86441e-16 0)
(3 7.25367e-16 0)
(3 1.47008e-16 0)
(3 -6.58769e-16 0)
(3 -1.26125e-15 0)
(3 -1.26756e-15 0)
(3 -8.43513e-16 0)
(3 -1.09346e-15 0)
(3 -1.06658e-15 0)
(3 -5.19004e-16 0)
(3 1.45426e-16 0)
(3 4.7295e-17 0)
(3 2.94414e-16 0)
(3 1.29251e-15 0)
(3 4.60572e-16 0)
(3 -3.60011e-16 0)
(3 1.06256e-17 0)
(3 2.2579e-17 0)
(3 -9.10371e-17 0)
(3 1.19014e-16 0)
(3 4.70044e-16 0)
(3 2.63954e-16 0)
(3 1.01899e-16 0)
(3 -2.57913e-16 0)
(3 -8.69792e-17 0)
(3 1.75164e-16 0)
(3 1.82411e-17 0)
(3 -2.80019e-16 0)
(3 -3.4691e-16 0)
(3 -4.00032e-16 0)
(3 -1.16005e-16 0)
(3 -9.3893e-18 0)
(3 4.61846e-17 0)
(3 1.31757e-16 0)
(3 6.1436e-16 0)
(3 6.40567e-16 0)
(3 -4.71423e-16 0)
(3 -1.68133e-15 0)
(3 -2.1234e-15 0)
(3 -2.20643e-15 0)
(3 -1.82868e-15 0)
(3 -1.17089e-15 0)
(3 -1.2843e-15 0)
(3 -1.52341e-15 0)
(3 -1.74498e-15 0)
(3 -1.97814e-15 0)
(3 -2.35457e-15 0)
(3 -1.52525e-15 0)
(3 -6.7799e-16 0)
(3 -3.72952e-16 0)
(3 -6.56025e-16 0)
(3 -1.65451e-15 0)
(3 -2.70033e-15 0)
(3 -1.98276e-15 0)
(3 -2.19859e-15 0)
(3 -1.62141e-15 0)
(3 -4.51744e-16 0)
(3 -5.12295e-16 0)
(3 1.91224e-16 0)
(3 2.5819e-16 0)
(3 -2.00771e-16 0)
(3 1.25478e-16 0)
(3 -1.3948e-16 0)
(3 -7.82026e-16 0)
(3 -1.37501e-16 0)
(3 -2.1126e-16 0)
(3 -4.12945e-16 0)
(3 -1.85721e-16 0)
(3 1.05076e-16 0)
(3 5.77882e-16 0)
(3 5.89877e-16 0)
(3 6.4663e-16 0)
(3 8.37332e-16 0)
(3 7.01396e-16 0)
(3 6.86555e-16 0)
(3 3.83502e-16 0)
(3 3.94743e-16 0)
(3 2.92835e-16 0)
(3 3.05939e-16 0)
(3 -3.66183e-17 0)
(3 -8.76434e-16 0)
(3 -8.16767e-16 0)
(3 -3.48782e-16 0)
(3 1.67363e-16 0)
(3 3.59706e-16 0)
(3 -4.26313e-16 0)
(3 -1.57956e-15 0)
(3 -1.50159e-15 0)
(3 -1.96554e-15 0)
(3 -1.94729e-15 0)
(3 -1.21215e-15 0)
(3 -1.25601e-15 0)
(3 -1.1455e-15 0)
(3 -2.25674e-15 0)
(3 -3.12265e-15 0)
(3 -2.82263e-15 0)
(3 -2.1188e-15 0)
(3 -1.87508e-15 0)
(3 -2.27288e-15 0)
(3 -2.15329e-15 0)
(3 -2.68399e-15 0)
(3 -2.85841e-15 0)
(3 -3.78606e-15 0)
(3 -3.61108e-15 0)
(3 -1.1191e-15 0)
(3 -2.78542e-16 0)
(3 -3.54726e-16 0)
(3 -3.67795e-16 0)
(3 -3.92682e-17 0)
(3 2.78394e-16 0)
(3 5.78237e-16 0)
(3 6.78332e-16 0)
(3 -7.39368e-17 0)
(3 -8.22098e-17 0)
(3 1.98518e-16 0)
(3 -3.08328e-16 0)
(3 2.68836e-16 0)
(3 7.70959e-16 0)
(3 8.56805e-16 0)
(3 1.20854e-16 0)
(3 5.61544e-17 0)
(3 -3.99419e-17 0)
(3 1.31475e-16 0)
(3 4.64377e-16 0)
(3 7.03454e-16 0)
(3 5.51034e-16 0)
(3 4.34536e-16 0)
(3 6.94334e-16 0)
(3 5.00453e-16 0)
(3 4.71897e-16 0)
(3 -5.76595e-18 0)
(3 -6.55838e-16 0)
(3 -9.46168e-16 0)
(3 -7.82258e-16 0)
(3 -1.21622e-15 0)
(3 -1.67454e-15 0)
(3 -2.54974e-15 0)
(3 -2.50284e-15 0)
(3 -2.01238e-15 0)
(3 -1.86354e-15 0)
(3 -1.55352e-15 0)
(3 -2.73032e-15 0)
(3 -3.0012e-15 0)
(3 -2.90852e-15 0)
(3 -1.91133e-15 0)
(3 -1.50856e-15 0)
(3 -5.03217e-16 0)
(3 2.40649e-16 0)
(3 -4.78922e-16 0)
(3 -2.49058e-15 0)
(3 -2.45118e-15 0)
(3 -2.35476e-15 0)
(3 -1.86222e-15 0)
(3 -1.41443e-15 0)
(3 -1.43541e-15 0)
(3 -1.35387e-15 0)
(3 -1.05695e-15 0)
(3 1.03927e-16 0)
(3 1.2393e-16 0)
(3 -9.46066e-16 0)
(3 -1.57754e-17 0)
(3 1.0146e-16 0)
(3 6.32379e-16 0)
(3 8.75164e-16 0)
(3 7.03965e-16 0)
(3 4.54705e-16 0)
(3 4.14654e-17 0)
(3 5.22743e-17 0)
(3 2.00066e-16 0)
(3 3.79692e-16 0)
(3 1.5253e-16 0)
(3 -1.63359e-16 0)
(3 -2.86188e-16 0)
(3 -8.47417e-16 0)
(3 -1.12074e-15 0)
(3 -6.25243e-16 0)
(3 8.46551e-17 0)
(3 2.60988e-16 0)
(3 2.08561e-17 0)
(3 -7.22578e-16 0)
(3 -1.60441e-15 0)
(3 -1.3988e-15 0)
(3 -1.28133e-15 0)
(3 -1.43215e-15 0)
(3 -9.32723e-16 0)
(3 -7.98535e-16 0)
(3 -9.03028e-16 0)
(3 -1.40707e-15 0)
(3 -1.86169e-15 0)
(3 -2.43678e-15 0)
(3 -2.60556e-15 0)
(3 -1.2038e-15 0)
(3 -1.09746e-15 0)
(3 -1.12096e-15 0)
(3 -7.36779e-16 0)
(3 -1.31706e-15 0)
(3 -1.4705e-15 0)
(3 -1.23783e-15 0)
(3 -4.16252e-16 0)
(3 -4.1153e-17 0)
(3 -2.01585e-16 0)
(3 -8.45013e-16 0)
(3 -1.10838e-15 0)
(3 -3.64648e-16 0)
(3 -2.37668e-16 0)
(3 -3.58326e-16 0)
(3 1.70907e-16 0)
(3 -8.76151e-16 0)
(3 3.55526e-18 0)
(3 3.69519e-17 0)
(3 -2.47898e-17 0)
(3 2.19528e-16 0)
(3 -3.32867e-17 0)
(3 -6.24324e-17 0)
(3 -3.70687e-16 0)
(3 3.31472e-16 0)
(3 3.28196e-16 0)
(3 4.45972e-17 0)
(3 8.25887e-17 0)
(3 -1.04167e-16 0)
(3 -6.49868e-16 0)
(3 -7.67522e-16 0)
(3 -1.38967e-15 0)
(3 -1.94091e-15 0)
(3 -1.33275e-15 0)
(3 -9.7674e-16 0)
(3 -7.95142e-16 0)
(3 -4.58576e-16 0)
(3 -5.15074e-16 0)
(3 -1.72651e-15 0)
(3 -1.31659e-15 0)
(3 -6.48725e-16 0)
(3 -9.0119e-17 0)
(3 -6.08616e-16 0)
(3 -1.0399e-15 0)
(3 -1.31174e-15 0)
(3 -2.60038e-15 0)
(3 -3.03937e-15 0)
(3 -2.66958e-15 0)
(3 -2.35076e-15 0)
(3 -2.69373e-15 0)
(3 -2.11173e-15 0)
(3 -2.14765e-15 0)
(3 -9.74899e-16 0)
(3 1.72076e-16 0)
(3 1.04911e-15 0)
(3 1.12822e-15 0)
(3 1.1865e-15 0)
(3 7.71041e-16 0)
(3 3.56451e-16 0)
(3 9.92185e-16 0)
(3 1.96698e-15 0)
(3 2.1396e-15 0)
(3 4.46492e-16 0)
(3 -4.26925e-16 0)
(3 -1.02834e-15 0)
(3 -6.97932e-17 0)
(3 -1.73411e-16 0)
(3 -2.77096e-16 0)
(3 -5.04952e-16 0)
(3 -2.09222e-16 0)
(3 -9.69283e-17 0)
(3 2.25004e-16 0)
(3 2.40219e-16 0)
(3 -7.82927e-17 0)
(3 -9.17814e-16 0)
(3 -1.15994e-15 0)
(3 -1.09954e-15 0)
(3 -8.92764e-16 0)
(3 -5.48122e-17 0)
(3 1.015e-16 0)
(3 -1.85376e-16 0)
(3 -3.95076e-16 0)
(3 -5.16058e-16 0)
(3 -1.44844e-15 0)
(3 -2.21731e-15 0)
(3 -2.07275e-15 0)
(3 -1.77231e-15 0)
(3 -1.28628e-15 0)
(3 -6.54389e-16 0)
(3 1.78933e-16 0)
(3 -6.06245e-16 0)
(3 -2.18157e-15 0)
(3 -2.35259e-15 0)
(3 -2.21898e-15 0)
(3 -1.70877e-15 0)
(3 -1.78523e-15 0)
(3 -1.79921e-15 0)
(3 -1.41317e-15 0)
(3 -9.40448e-16 0)
(3 7.86801e-17 0)
(3 8.34631e-16 0)
(3 1.77921e-15 0)
(3 2.2447e-15 0)
(3 1.40964e-15 0)
(3 4.44933e-16 0)
(3 -5.91515e-17 0)
(3 5.07445e-16 0)
(3 1.90482e-15 0)
(3 2.71461e-15 0)
(3 2.04984e-15 0)
(3 7.24433e-16 0)
(3 -2.15792e-15 0)
(3 -1.95751e-15 0)
(3 -1.37464e-17 0)
(3 2.9204e-17 0)
(3 1.76674e-16 0)
(3 4.078e-16 0)
(3 7.33612e-16 0)
(3 8.72512e-16 0)
(3 6.16238e-16 0)
(3 1.83888e-16 0)
(3 -1.24171e-16 0)
(3 -3.14169e-17 0)
(3 -5.46573e-16 0)
(3 -5.34724e-16 0)
(3 -3.70211e-16 0)
(3 -2.54473e-16 0)
(3 2.56003e-16 0)
(3 2.56631e-16 0)
(3 -1.61175e-16 0)
(3 -8.93199e-16 0)
(3 -1.17827e-15 0)
(3 -1.48602e-15 0)
(3 -1.28697e-15 0)
(3 -4.47776e-16 0)
(3 1.27621e-16 0)
(3 -1.2933e-16 0)
(3 -3.757e-16 0)
(3 -1.11766e-15 0)
(3 -1.57641e-15 0)
(3 -1.16165e-15 0)
(3 -8.38787e-16 0)
(3 3.33997e-16 0)
(3 6.2117e-16 0)
(3 9.52295e-16 0)
(3 9.46305e-16 0)
(3 -2.20123e-16 0)
(3 -1.99323e-16 0)
(3 4.6795e-17 0)
(3 1.08673e-15 0)
(3 1.2717e-15 0)
(3 1.95843e-15 0)
(3 2.23669e-15 0)
(3 2.23808e-15 0)
(3 1.79306e-15 0)
(3 9.56777e-16 0)
(3 7.40796e-16 0)
(3 1.1357e-16 0)
(3 7.57911e-16 0)
(3 9.72468e-16 0)
(3 7.06106e-16 0)
(3 1.24147e-16 0)
(3 2.73322e-16 0)
(3 2.51644e-16 0)
(3 4.07776e-16 0)
(3 4.33091e-16 0)
(3 3.93573e-16 0)
(3 4.64025e-17 0)
(3 -8.41164e-17 0)
(3 2.74304e-16 0)
(3 7.52111e-16 0)
(3 9.3909e-16 0)
(3 8.38643e-16 0)
(3 4.80014e-16 0)
(3 -2.63712e-16 0)
(3 -2.32882e-16 0)
(3 -4.73467e-16 0)
(3 -9.83906e-16 0)
(3 -1.21484e-15 0)
(3 -7.38856e-16 0)
(3 2.17178e-16 0)
(3 8.28269e-16 0)
(3 3.74851e-16 0)
(3 2.88702e-16 0)
(3 -5.63684e-16 0)
(3 -1.28709e-15 0)
(3 -1.38967e-15 0)
(3 -1.89671e-15 0)
(3 -9.13821e-16 0)
(3 8.09603e-16 0)
(3 1.25625e-15 0)
(3 1.81725e-15 0)
(3 1.14968e-15 0)
(3 6.56559e-16 0)
(3 -3.70276e-16 0)
(3 -2.64215e-16 0)
(3 1.22503e-15 0)
(3 1.56133e-15 0)
(3 1.11722e-15 0)
(3 1.84777e-15 0)
(3 2.45952e-15 0)
(3 2.7574e-15 0)
(3 2.03587e-15 0)
(3 2.03336e-15 0)
(3 1.12347e-15 0)
(3 1.37355e-15 0)
(3 1.86885e-15 0)
(3 2.48323e-15 0)
(3 1.61607e-15 0)
(3 1.81677e-16 0)
(3 2.12763e-16 0)
(3 1.42598e-16 0)
(3 -2.3745e-16 0)
(3 -9.96103e-16 0)
(3 -1.43861e-15 0)
(3 -9.26369e-16 0)
(3 -4.22841e-16 0)
(3 1.31636e-16 0)
(3 1.22148e-16 0)
(3 -8.11886e-17 0)
(3 -5.1563e-17 0)
(3 -1.75177e-16 0)
(3 -1.21255e-16 0)
(3 -3.78775e-16 0)
(3 -4.0555e-16 0)
(3 -5.5982e-16 0)
(3 -5.59773e-16 0)
(3 -8.10752e-16 0)
(3 -4.50259e-16 0)
(3 -1.55463e-16 0)
(3 6.11942e-16 0)
(3 1.03721e-15 0)
(3 8.0672e-16 0)
(3 2.65076e-16 0)
(3 -2.4384e-16 0)
(3 -2.72246e-16 0)
(3 1.05939e-16 0)
(3 9.9723e-16 0)
(3 1.14417e-15 0)
(3 1.54417e-15 0)
(3 6.86283e-16 0)
(3 4.91946e-16 0)
(3 8.49815e-16 0)
(3 1.31573e-15 0)
(3 1.63062e-15 0)
(3 1.81134e-15 0)
(3 1.72995e-15 0)
(3 1.32205e-15 0)
(3 1.76737e-15 0)
(3 2.49506e-15 0)
(3 3.16883e-15 0)
(3 2.84236e-15 0)
(3 2.14007e-15 0)
(3 2.04653e-15 0)
(3 1.57785e-15 0)
(3 1.24026e-15 0)
(3 1.52744e-15 0)
(3 -1.34598e-17 0)
(3 6.57984e-17 0)
(3 -4.80877e-17 0)
(3 -3.89249e-16 0)
(3 -7.40026e-16 0)
(3 -6.79845e-17 0)
(3 3.08332e-16 0)
(3 3.53574e-16 0)
(3 4.71933e-17 0)
(3 2.10261e-17 0)
(3 -8.83733e-16 0)
(3 -1.05723e-15 0)
(3 -8.2998e-16 0)
(3 -1.85695e-16 0)
(3 -4.33234e-16 0)
(3 -6.6148e-16 0)
(3 -3.60505e-16 0)
(3 -1.25663e-16 0)
(3 -7.32879e-16 0)
(3 -1.0737e-15 0)
(3 6.20255e-16 0)
(3 2.17738e-15 0)
(3 2.78684e-15 0)
(3 2.24085e-15 0)
(3 1.24421e-15 0)
(3 3.80755e-16 0)
(3 9.44228e-16 0)
(3 6.02224e-16 0)
(3 2.43492e-16 0)
(3 -1.78102e-16 0)
(3 -4.87236e-16 0)
(3 -9.06199e-19 0)
(3 7.13141e-16 0)
(3 1.20566e-15 0)
(3 2.20977e-15 0)
(3 2.26293e-15 0)
(3 2.21445e-15 0)
(3 2.45474e-15 0)
(3 1.49351e-15 0)
(3 1.58585e-15 0)
(3 1.9689e-15 0)
(3 2.56882e-15 0)
(3 1.73104e-15 0)
(3 1.25563e-15 0)
(3 1.49741e-15 0)
(3 1.69424e-15 0)
(3 1.68653e-15 0)
(3 2.52298e-15 0)
(3 -4.6508e-17 0)
(3 2.67859e-16 0)
(3 2.10432e-16 0)
(3 3.54998e-16 0)
(3 2.13321e-16 0)
(3 5.42058e-16 0)
(3 3.64471e-16 0)
(3 4.22759e-16 0)
(3 2.38211e-16 0)
(3 -1.22974e-16 0)
(3 -5.32038e-16 0)
(3 -8.1368e-16 0)
(3 -1.44391e-15 0)
(3 -1.62655e-15 0)
(3 -1.29559e-15 0)
(3 -5.09525e-16 0)
(3 -1.59575e-16 0)
(3 -1.55453e-16 0)
(3 -1.06014e-16 0)
(3 -9.36355e-18 0)
(3 4.71057e-16 0)
(3 1.06148e-15 0)
(3 2.11663e-15 0)
(3 1.60412e-15 0)
(3 3.93722e-16 0)
(3 3.7161e-16 0)
(3 1.3435e-16 0)
(3 1.63651e-16 0)
(3 6.39394e-17 0)
(3 -2.59953e-17 0)
(3 -3.94296e-16 0)
(3 -2.36018e-16 0)
(3 2.54654e-16 0)
(3 1.3941e-15 0)
(3 2.13504e-15 0)
(3 3.11097e-15 0)
(3 9.12626e-16 0)
(3 -6.30079e-16 0)
(3 -1.50804e-16 0)
(3 6.53734e-16 0)
(3 1.03587e-15 0)
(3 1.00918e-15 0)
(3 6.22983e-16 0)
(3 2.46323e-16 0)
(3 -8.20476e-17 0)
(3 4.50787e-16 0)
(3 1.16256e-15 0)
(3 1.11081e-15 0)
(3 -2.96475e-17 0)
(3 2.34323e-16 0)
(3 1.10757e-16 0)
(3 -9.56574e-17 0)
(3 -3.87645e-16 0)
(3 -4.83385e-16 0)
(3 -2.43772e-16 0)
(3 -4.13705e-16 0)
(3 -2.27594e-16 0)
(3 2.59277e-17 0)
(3 3.05294e-16 0)
(3 1.2555e-16 0)
(3 -4.65464e-16 0)
(3 -1.62759e-15 0)
(3 -1.42591e-15 0)
(3 -8.55478e-16 0)
(3 1.25988e-16 0)
(3 5.95649e-16 0)
(3 1.31368e-15 0)
(3 1.4848e-15 0)
(3 3.23825e-16 0)
(3 -5.32662e-16 0)
(3 -7.12228e-16 0)
(3 -3.82234e-16 0)
(3 -4.9458e-16 0)
(3 -4.90809e-16 0)
(3 -5.22843e-16 0)
(3 -2.05302e-16 0)
(3 -1.47592e-16 0)
(3 -4.91876e-16 0)
(3 1.52542e-17 0)
(3 8.32558e-16 0)
(3 1.034e-15 0)
(3 9.21817e-16 0)
(3 9.62427e-16 0)
(3 1.05208e-15 0)
(3 6.55273e-16 0)
(3 8.88468e-16 0)
(3 1.20522e-15 0)
(3 1.40519e-15 0)
(3 1.9163e-15 0)
(3 1.95636e-15 0)
(3 1.53402e-15 0)
(3 6.03293e-16 0)
(3 -4.42106e-16 0)
(3 -2.76297e-17 0)
(3 6.14119e-17 0)
(3 -1.16958e-15 0)
(3 -1.49472e-16 0)
(3 -3.90059e-16 0)
(3 -2.43054e-16 0)
(3 -6.36374e-16 0)
(3 -6.53451e-16 0)
(3 -6.07829e-16 0)
(3 -3.25381e-16 0)
(3 -2.86005e-16 0)
(3 5.21087e-17 0)
(3 8.96852e-16 0)
(3 1.52612e-15 0)
(3 2.2145e-15 0)
(3 2.28594e-15 0)
(3 9.44633e-16 0)
(3 1.70234e-16 0)
(3 -7.98353e-17 0)
(3 4.69878e-17 0)
(3 5.83441e-16 0)
(3 9.44095e-16 0)
(3 1.13539e-15 0)
(3 5.33366e-16 0)
(3 -7.62261e-16 0)
(3 -1.76096e-15 0)
(3 -1.32224e-15 0)
(3 -1.05301e-15 0)
(3 -7.76988e-16 0)
(3 -5.14751e-16 0)
(3 -1.8087e-16 0)
(3 2.20276e-16 0)
(3 2.11691e-16 0)
(3 7.01936e-16 0)
(3 1.48131e-15 0)
(3 9.61135e-16 0)
(3 2.53584e-16 0)
(3 -3.27668e-16 0)
(3 -1.51596e-15 0)
(3 -1.11013e-15 0)
(3 -2.47223e-16 0)
(3 -7.70637e-17 0)
(3 3.86033e-17 0)
(3 3.29208e-16 0)
(3 2.80543e-16 0)
(3 1.09142e-15 0)
(3 9.71686e-16 0)
(3 1.17196e-15 0)
(3 1.34083e-15 0)
(3 6.40127e-16 0)
(3 2.67803e-16 0)
(3 9.70512e-18 0)
(3 -1.79353e-16 0)
(3 -8.62404e-17 0)
(3 -7.32216e-17 0)
(3 -5.72432e-18 0)
(3 2.2429e-18 0)
(3 1.79776e-16 0)
(3 7.81462e-16 0)
(3 1.04938e-15 0)
(3 1.19198e-15 0)
(3 1.18759e-15 0)
(3 2.01763e-15 0)
(3 2.32985e-15 0)
(3 2.20712e-15 0)
(3 1.26303e-15 0)
(3 1.06185e-15 0)
(3 4.42766e-16 0)
(3 6.21213e-16 0)
(3 4.14008e-16 0)
(3 3.05909e-16 0)
(3 2.6906e-16 0)
(3 1.0226e-16 0)
(3 -4.66656e-16 0)
(3 -1.25942e-15 0)
(3 -6.6452e-16 0)
(3 -4.75191e-16 0)
(3 -3.29423e-16 0)
(3 -4.36113e-16 0)
(3 -6.34652e-17 0)
(3 8.12347e-16 0)
(3 1.28477e-15 0)
(3 1.20891e-15 0)
(3 6.88605e-16 0)
(3 -7.06413e-16 0)
(3 -1.73422e-15 0)
(3 -2.2424e-15 0)
(3 -2.62095e-15 0)
(3 -2.10807e-15 0)
(3 -1.32741e-15 0)
(3 -7.11911e-16 0)
(3 -8.70504e-16 0)
(3 -1.02434e-15 0)
(3 2.8619e-16 0)
(3 2.63482e-15 0)
(3 3.01202e-15 0)
(3 2.07269e-15 0)
(3 1.68043e-15 0)
(3 1.55891e-15 0)
(3 -4.72165e-17 0)
(3 7.55953e-17 0)
(3 -8.7056e-17 0)
(3 -6.0192e-17 0)
(3 3.12201e-16 0)
(3 3.39778e-16 0)
(3 1.08266e-15 0)
(3 1.06929e-15 0)
(3 9.61797e-16 0)
(3 5.89343e-16 0)
(3 -1.61954e-17 0)
(3 -5.59964e-17 0)
(3 1.24283e-15 0)
(3 2.03221e-15 0)
(3 1.70629e-15 0)
(3 1.45166e-15 0)
(3 1.26667e-15 0)
(3 1.00363e-15 0)
(3 2.86769e-16 0)
(3 -3.61138e-17 0)
(3 -1.58666e-16 0)
(3 -1.32892e-17 0)
(3 6.32218e-17 0)
(3 -2.62401e-16 0)
(3 -1.19797e-17 0)
(3 3.54895e-16 0)
(3 5.68121e-16 0)
(3 3.30347e-16 0)
(3 6.14285e-18 0)
(3 -2.54357e-16 0)
(3 -7.97737e-16 0)
(3 -5.34547e-16 0)
(3 -5.20816e-16 0)
(3 -1.23151e-15 0)
(3 -1.81946e-15 0)
(3 -1.0886e-15 0)
(3 -1.43138e-15 0)
(3 -1.66849e-15 0)
(3 -1.62542e-15 0)
(3 -7.62551e-16 0)
(3 -4.89687e-16 0)
(3 2.62264e-16 0)
(3 2.30112e-15 0)
(3 3.38696e-15 0)
(3 3.45863e-15 0)
(3 2.56557e-15 0)
(3 1.98253e-15 0)
(3 1.48147e-15 0)
(3 2.55471e-17 0)
(3 1.94079e-16 0)
(3 7.89473e-17 0)
(3 5.5226e-16 0)
(3 9.03124e-16 0)
(3 7.73346e-16 0)
(3 5.72162e-16 0)
(3 6.04139e-16 0)
(3 6.38865e-16 0)
(3 2.29463e-16 0)
(3 -1.38149e-17 0)
(3 1.40378e-16 0)
(3 9.55625e-16 0)
(3 1.43224e-15 0)
(3 1.64758e-15 0)
(3 1.58487e-15 0)
(3 1.50376e-15 0)
(3 1.04507e-15 0)
(3 8.42286e-16 0)
(3 8.60441e-17 0)
(3 -2.92482e-16 0)
(3 -1.16703e-16 0)
(3 -5.52997e-17 0)
(3 5.62529e-16 0)
(3 8.89794e-16 0)
(3 7.36597e-16 0)
(3 8.87533e-16 0)
(3 2.70061e-16 0)
(3 -8.94276e-18 0)
(3 -1.23738e-15 0)
(3 -2.46882e-15 0)
(3 -2.3857e-15 0)
(3 -2.30158e-15 0)
(3 -2.08655e-15 0)
(3 -1.76295e-15 0)
(3 -5.4893e-16 0)
(3 -4.6907e-16 0)
(3 -1.10567e-15 0)
(3 -9.27742e-16 0)
(3 -9.56128e-16 0)
(3 -3.56727e-16 0)
(3 9.65375e-16 0)
(3 1.86411e-15 0)
(3 1.91413e-15 0)
(3 1.7175e-15 0)
(3 2.10939e-15 0)
(3 1.71279e-15 0)
(3 1.18794e-15 0)
(3 2.12096e-16 0)
(3 1.17734e-16 0)
(3 1.56563e-16 0)
(3 2.07737e-16 0)
(3 -1.45587e-16 0)
(3 -3.4639e-16 0)
(3 -8.40539e-17 0)
(3 3.91833e-16 0)
(3 2.61388e-16 0)
(3 -8.01801e-17 0)
(3 -1.92601e-17 0)
(3 3.25439e-16 0)
(3 6.9169e-16 0)
(3 7.94959e-16 0)
(3 7.89189e-16 0)
(3 1.23801e-15 0)
(3 7.99168e-16 0)
(3 9.35947e-16 0)
(3 1.06792e-15 0)
(3 8.63293e-16 0)
(3 4.57259e-16 0)
(3 5.65048e-17 0)
(3 -4.31838e-16 0)
(3 1.66709e-16 0)
(3 8.6198e-16 0)
(3 8.07861e-16 0)
(3 1.41301e-16 0)
(3 5.55848e-16 0)
(3 2.7942e-16 0)
(3 -8.85295e-16 0)
(3 -1.20955e-15 0)
(3 -1.236e-15 0)
(3 -1.56699e-15 0)
(3 -1.94454e-15 0)
(3 -1.53693e-15 0)
(3 -2.00541e-15 0)
(3 -1.65662e-15 0)
(3 1.69826e-16 0)
(3 6.93975e-16 0)
(3 2.97627e-16 0)
(3 -1.36695e-16 0)
(3 -6.84818e-17 0)
(3 -4.56367e-16 0)
(3 -1.97773e-17 0)
(3 3.30093e-16 0)
(3 7.31313e-16 0)
(3 1.85689e-15 0)
(3 2.83988e-15 0)
(3 -8.39389e-17 0)
(3 8.52717e-17 0)
(3 7.21184e-17 0)
(3 3.01618e-17 0)
(3 -4.5581e-16 0)
(3 -6.44313e-16 0)
(3 -4.47767e-16 0)
(3 -4.45868e-16 0)
(3 -4.69212e-16 0)
(3 -7.5559e-16 0)
(3 -6.30025e-16 0)
(3 -5.89314e-16 0)
(3 -6.27405e-16 0)
(3 -7.70495e-17 0)
(3 1.04485e-16 0)
(3 -3.27017e-16 0)
(3 -2.89145e-16 0)
(3 -7.04271e-16 0)
(3 1.72511e-16 0)
(3 1.01505e-15 0)
(3 1.31709e-15 0)
(3 1.33829e-15 0)
(3 8.7467e-16 0)
(3 4.01222e-16 0)
(3 6.24129e-16 0)
(3 3.4466e-16 0)
(3 -1.95142e-16 0)
(3 1.39852e-16 0)
(3 -1.43386e-16 0)
(3 -1.1105e-15 0)
(3 -1.85944e-15 0)
(3 -2.01663e-15 0)
(3 -2.60444e-15 0)
(3 -2.6809e-15 0)
(3 -2.45319e-15 0)
(3 -2.21467e-15 0)
(3 -2.3378e-15 0)
(3 -2.29364e-15 0)
(3 -1.88851e-15 0)
(3 -1.28853e-15 0)
(3 -1.19707e-15 0)
(3 -1.13569e-15 0)
(3 -8.50364e-16 0)
(3 -7.53966e-16 0)
(3 -5.19973e-16 0)
(3 -6.11994e-16 0)
(3 -4.68322e-16 0)
(3 1.25582e-15 0)
(3 -1.86136e-16 0)
(3 -2.35282e-16 0)
(3 -7.347e-18 0)
(3 1.9727e-16 0)
(3 3.10937e-16 0)
(3 2.7031e-16 0)
(3 -2.25431e-16 0)
(3 -9.47255e-16 0)
(3 -6.89368e-16 0)
(3 -7.64159e-16 0)
(3 -1.12128e-15 0)
(3 -1.26127e-15 0)
(3 -1.58235e-15 0)
(3 -1.90234e-15 0)
(3 -1.93842e-15 0)
(3 -2.36016e-15 0)
(3 -1.29049e-15 0)
(3 -1.08003e-15 0)
(3 5.43143e-16 0)
(3 1.72303e-15 0)
(3 1.69055e-15 0)
(3 1.2261e-15 0)
(3 1.11791e-15 0)
(3 1.26548e-15 0)
(3 1.11544e-15 0)
(3 3.58182e-16 0)
(3 2.33614e-16 0)
(3 4.30501e-16 0)
(3 4.39155e-16 0)
(3 -9.20126e-16 0)
(3 -2.20743e-15 0)
(3 -2.35706e-15 0)
(3 -3.13328e-15 0)
(3 -4.12268e-15 0)
(3 -3.95804e-15 0)
(3 -1.7777e-15 0)
(3 -2.09948e-15 0)
(3 -2.32302e-15 0)
(3 -2.62308e-15 0)
(3 -2.57904e-15 0)
(3 -2.86163e-15 0)
(3 -1.70536e-15 0)
(3 -6.87139e-16 0)
(3 -3.3892e-16 0)
(3 9.76807e-17 0)
(3 2.96504e-16 0)
(3 7.62908e-16 0)
(3 1.0391e-15 0)
(3 2.46299e-17 0)
(3 -2.2495e-16 0)
(3 -3.91465e-16 0)
(3 -5.38811e-16 0)
(3 1.00376e-16 0)
(3 2.58227e-16 0)
(3 1.53215e-16 0)
(3 -1.51246e-16 0)
(3 -7.76713e-16 0)
(3 -7.59145e-16 0)
(3 -8.4479e-16 0)
(3 -1.24831e-15 0)
(3 -1.5241e-15 0)
(3 -1.49812e-15 0)
(3 -1.74733e-15 0)
(3 -1.49567e-15 0)
(3 -1.47885e-15 0)
(3 -8.40696e-16 0)
(3 2.35334e-16 0)
(3 8.05569e-16 0)
(3 9.07721e-16 0)
(3 2.90742e-16 0)
(3 7.64242e-16 0)
(3 7.7486e-16 0)
(3 3.84266e-16 0)
(3 4.23667e-16 0)
(3 -3.94254e-16 0)
(3 -4.71262e-16 0)
(3 -3.6843e-17 0)
(3 1.27894e-17 0)
(3 -1.02882e-15 0)
(3 -2.7774e-15 0)
(3 -3.52537e-15 0)
(3 -2.84086e-15 0)
(3 -2.52234e-15 0)
(3 -2.59995e-15 0)
(3 -2.4386e-15 0)
(3 -2.30422e-15 0)
(3 -2.39189e-15 0)
(3 -2.04039e-15 0)
(3 -1.02527e-15 0)
(3 -9.62973e-16 0)
(3 -1.23416e-15 0)
(3 -8.54284e-16 0)
(3 1.05198e-15 0)
(3 1.46552e-15 0)
(3 1.45383e-15 0)
(3 7.05495e-16 0)
(3 6.80257e-17 0)
(3 2.74865e-17 0)
(3 -3.77193e-16 0)
(3 -2.59305e-16 0)
(3 1.33422e-16 0)
(3 1.17554e-17 0)
(3 -2.41507e-16 0)
(3 3.7765e-17 0)
(3 -2.14872e-16 0)
(3 -1.44833e-16 0)
(3 -1.84522e-16 0)
(3 -3.35523e-16 0)
(3 -1.75786e-16 0)
(3 7.95342e-17 0)
(3 3.38444e-16 0)
(3 3.8476e-16 0)
(3 7.06532e-17 0)
(3 7.17922e-16 0)
(3 1.20802e-15 0)
(3 1.32959e-15 0)
(3 1.22447e-15 0)
(3 1.23703e-15 0)
(3 7.40058e-16 0)
(3 1.11522e-16 0)
(3 -8.95321e-17 0)
(3 -1.16114e-16 0)
(3 -5.91041e-16 0)
(3 -2.08883e-15 0)
(3 -2.7453e-15 0)
(3 -1.99613e-15 0)
(3 -1.49763e-15 0)
(3 -1.83817e-15 0)
(3 -2.20938e-15 0)
(3 -1.82397e-15 0)
(3 -1.82565e-15 0)
(3 -1.89357e-15 0)
(3 -2.23158e-15 0)
(3 -2.27919e-15 0)
(3 -1.7676e-15 0)
(3 -1.11593e-15 0)
(3 -5.88221e-16 0)
(3 -8.02707e-16 0)
(3 -1.18221e-15 0)
(3 -8.13167e-16 0)
(3 4.27157e-16 0)
(3 8.61993e-16 0)
(3 2.06101e-16 0)
(3 4.52427e-16 0)
(3 7.49944e-18 0)
(3 6.49841e-18 0)
(3 -8.50776e-17 0)
(3 -4.77943e-17 0)
(3 -1.40259e-17 0)
(3 -5.77552e-16 0)
(3 -1.14735e-15 0)
(3 -8.4871e-16 0)