/*--------------------------------*- C++ -*----------------------------------*\
  =========                 |
  \\      /  F ield         | OpenFOAM: The Open Source CFD Toolbox
   \\    /   O peration     | Website:  https://openfoam.org
    \\  /    A nd           | Version:  7
     \\/     M anipulation  |
\*---------------------------------------------------------------------------*/
FoamFile
{
    version     2.0;
    format      ascii;
    class       volVectorField;
    location    "2.3";
    object      U;
}
// * * * * * * * * * * * * * * * * * * * * * * * * * * * * * * * * * * * * * //

dimensions      [0 1 -1 0 0 0 0];

internalField   nonuniform List<vector> 
73728
(
(3 3.48156e-18 0)
(3 2.17085e-16 0)
(3 3.2072e-16 0)
(3 4.76217e-17 0)
(3 2.39518e-16 0)
(3 3.34597e-16 0)
(3 2.52332e-16 0)
(3 1.50644e-16 0)
(3 1.74731e-16 0)
(3 -8.77728e-17 0)
(3 -5.13992e-16 0)
(3 -1.03658e-15 0)
(3 -7.57837e-16 0)
(3 -3.90604e-16 0)
(3 2.81384e-16 0)
(3 7.96073e-16 0)
(3 9.60104e-17 0)
(3 -3.46027e-16 0)
(3 -2.4213e-16 0)
(3 -2.26543e-16 0)
(3 -1.50206e-16 0)
(3 1.49684e-16 0)
(3 -6.62814e-17 0)
(3 8.46444e-16 0)
(3 1.03656e-15 0)
(3 -2.19979e-18 0)
(3 -5.97217e-16 0)
(3 -1.18883e-15 0)
(3 -9.78415e-16 0)
(3 -6.49052e-16 0)
(3 3.16195e-16 0)
(3 -8.31221e-17 0)
(3 2.00444e-17 0)
(3 2.05083e-17 0)
(3 -7.98897e-17 0)
(3 -1.21867e-17 0)
(3 1.00879e-16 0)
(3 1.64212e-16 0)
(3 1.17157e-16 0)
(3 2.19132e-16 0)
(3 2.51645e-16 0)
(3 4.79287e-16 0)
(3 8.20243e-17 0)
(3 -8.92025e-16 0)
(3 -1.64335e-15 0)
(3 -1.90439e-15 0)
(3 -1.77456e-15 0)
(3 -1.12989e-15 0)
(3 -1.33737e-15 0)
(3 -1.65272e-15 0)
(3 -1.3127e-15 0)
(3 -8.47232e-16 0)
(3 -2.56512e-16 0)
(3 3.96051e-16 0)
(3 5.88364e-16 0)
(3 4.63933e-16 0)
(3 4.0403e-16 0)
(3 6.09024e-16 0)
(3 1.12714e-15 0)
(3 1.59234e-15 0)
(3 1.2481e-15 0)
(3 1.998e-17 0)
(3 2.90734e-16 0)
(3 -5.29383e-17 0)
(3 -4.76339e-16 0)
(3 -7.92378e-17 0)
(3 7.48915e-16 0)
(3 9.60216e-16 0)
(3 -2.09636e-16 0)
(3 -8.08182e-16 0)
(3 -7.42524e-16 0)
(3 -7.31316e-16 0)
(3 -2.1697e-16 0)
(3 1.92463e-16 0)
(3 2.2324e-16 0)
(3 3.04699e-16 0)
(3 6.24914e-16 0)
(3 1.19394e-15 0)
(3 3.70024e-17 0)
(3 -4.61623e-16 0)
(3 -4.46989e-16 0)
(3 -2.07965e-17 0)
(3 1.62546e-16 0)
(3 6.60695e-17 0)
(3 5.63696e-16 0)
(3 5.80531e-16 0)
(3 9.93729e-17 0)
(3 -3.81382e-16 0)
(3 -1.52456e-15 0)
(3 -1.87158e-15 0)
(3 -1.23298e-15 0)
(3 -9.10279e-16 0)
(3 -8.47842e-16 0)
(3 -6.34403e-16 0)
(3 -9.28485e-16 0)
(3 -7.53549e-16 0)
(3 9.29101e-17 0)
(3 1.00039e-16 0)
(3 -4.738e-17 0)
(3 -7.67228e-16 0)
(3 -3.86852e-16 0)
(3 5.38952e-16 0)
(3 8.05508e-16 0)
(3 9.07453e-16 0)
(3 6.66046e-16 0)
(3 -3.45262e-16 0)
(3 -6.31812e-16 0)
(3 -1.1219e-15 0)
(3 -6.96206e-16 0)
(3 7.77781e-17 0)
(3 6.27235e-16 0)
(3 1.21844e-15 0)
(3 -2.27691e-16 0)
(3 -5.04825e-16 0)
(3 -3.21843e-16 0)
(3 -3.67433e-16 0)
(3 -3.85125e-17 0)
(3 3.77368e-16 0)
(3 4.81772e-16 0)
(3 5.9211e-16 0)
(3 4.01911e-16 0)
(3 -6.14851e-16 0)
(3 -1.81731e-15 0)
(3 -2.37883e-15 0)
(3 -2.40069e-15 0)
(3 -2.10676e-15 0)
(3 -9.40434e-16 0)
(3 -3.64164e-17 0)
(3 1.91221e-16 0)
(3 9.59977e-16 0)
(3 3.21508e-16 0)
(3 2.07602e-16 0)
(3 8.50759e-16 0)
(3 1.39055e-15 0)
(3 1.8295e-15 0)
(3 2.27977e-15 0)
(3 2.11115e-15 0)
(3 1.50593e-15 0)
(3 5.66936e-16 0)
(3 -1.84648e-15 0)
(3 -3.14047e-15 0)
(3 -3.01112e-15 0)
(3 -1.78474e-15 0)
(3 -1.79885e-15 0)
(3 -2.74448e-15 0)
(3 -2.61748e-15 0)
(3 -9.33493e-16 0)
(3 -6.36678e-16 0)
(3 5.24307e-16 0)
(3 2.24519e-15 0)
(3 2.2516e-15 0)
(3 1.6649e-15 0)
(3 1.55603e-15 0)
(3 2.01269e-15 0)
(3 2.93785e-15 0)
(3 3.75161e-15 0)
(3 3.6503e-15 0)
(3 7.84073e-16 0)
(3 1.98906e-16 0)
(3 3.10648e-16 0)
(3 4.77758e-16 0)
(3 5.64213e-16 0)
(3 3.05451e-16 0)
(3 3.38506e-16 0)
(3 -1.1807e-15 0)
(3 -2.24302e-15 0)
(3 -1.94743e-15 0)
(3 -1.85501e-15 0)
(3 -7.22501e-16 0)
(3 -1.81318e-17 0)
(3 1.56956e-15 0)
(3 1.05666e-15 0)
(3 4.84238e-16 0)
(3 3.867e-16 0)
(3 -2.75875e-16 0)
(3 -1.01347e-15 0)
(3 -8.1404e-16 0)
(3 -6.48703e-16 0)
(3 -5.0062e-16 0)
(3 -1.56566e-15 0)
(3 -1.7335e-15 0)
(3 -1.14917e-15 0)
(3 -4.58561e-16 0)
(3 2.27065e-16 0)
(3 -1.13812e-15 0)
(3 -2.04331e-15 0)
(3 -8.85463e-16 0)
(3 -6.0488e-16 0)
(3 -1.44645e-15 0)
(3 -1.90159e-15 0)
(3 -2.77287e-15 0)
(3 -2.75109e-15 0)
(3 9.06611e-17 0)
(3 -1.38811e-16 0)
(3 -5.05576e-16 0)
(3 -4.41419e-16 0)
(3 5.97209e-17 0)
(3 5.27163e-16 0)
(3 9.23969e-16 0)
(3 4.45506e-16 0)
(3 -1.7063e-16 0)
(3 -7.84978e-16 0)
(3 -1.1323e-15 0)
(3 -8.02755e-16 0)
(3 -8.88078e-16 0)
(3 -8.3581e-16 0)
(3 -2.42346e-16 0)
(3 4.07008e-17 0)
(3 -1.22464e-16 0)
(3 6.39341e-16 0)
(3 8.98593e-16 0)
(3 9.83763e-16 0)
(3 1.07772e-15 0)
(3 1.4132e-15 0)
(3 1.67239e-15 0)
(3 1.35967e-15 0)
(3 8.454e-16 0)
(3 -3.52271e-16 0)
(3 -1.78396e-15 0)
(3 -2.52047e-15 0)
(3 -2.74431e-15 0)
(3 -2.91454e-15 0)
(3 -2.87383e-15 0)
(3 -2.13609e-16 0)
(3 6.54818e-16 0)
(3 7.32258e-16 0)
(3 4.16456e-16 0)
(3 7.85028e-17 0)
(3 1.42791e-15 0)
(3 2.00739e-15 0)
(3 3.37658e-15 0)
(3 4.40309e-15 0)
(3 4.19203e-15 0)
(3 2.82519e-15 0)
(3 1.92401e-15 0)
(3 1.44558e-15 0)
(3 -9.98672e-17 0)
(3 -1.06896e-15 0)
(3 -2.00244e-15 0)
(3 -2.22196e-15 0)
(3 -2.50821e-15 0)
(3 -2.31711e-15 0)
(3 -2.19212e-15 0)
(3 -1.59464e-15 0)
(3 -7.94044e-16 0)
(3 -5.98377e-16 0)
(3 7.46784e-17 0)
(3 1.05692e-15 0)
(3 9.32906e-16 0)
(3 1.73697e-15 0)
(3 2.16354e-15 0)
(3 2.778e-15 0)
(3 2.16845e-15 0)
(3 1.72888e-15 0)
(3 8.51876e-16 0)
(3 5.19067e-16 0)
(3 2.55731e-16 0)
(3 2.94118e-16 0)
(3 -1.94119e-17 0)
(3 -8.37908e-16 0)
(3 -2.05477e-15 0)
(3 -2.07887e-15 0)
(3 -2.31118e-15 0)
(3 -1.92715e-15 0)
(3 -1.62067e-15 0)
(3 -1.10523e-15 0)
(3 2.08657e-17 0)
(3 1.12243e-15 0)
(3 1.77829e-15 0)
(3 1.99877e-15 0)
(3 7.22397e-16 0)
(3 -4.50894e-16 0)
(3 -9.52361e-16 0)
(3 -4.53564e-16 0)
(3 9.71931e-16 0)
(3 1.39807e-15 0)
(3 9.1372e-16 0)
(3 5.95649e-16 0)
(3 4.92336e-16 0)
(3 4.29133e-16 0)
(3 -3.98294e-16 0)
(3 -8.49389e-16 0)
(3 -1.30961e-15 0)
(3 -1.89886e-15 0)
(3 -1.48818e-15 0)
(3 -2.64524e-15 0)
(3 -2.69799e-15 0)
(3 -3.09561e-15 0)
(3 -2.31111e-17 0)
(3 -3.27821e-16 0)
(3 -1.23546e-16 0)
(3 2.47744e-16 0)
(3 8.95072e-16 0)
(3 8.87226e-16 0)
(3 5.48982e-16 0)
(3 -2.61557e-16 0)
(3 -2.66094e-16 0)
(3 -2.76536e-16 0)
(3 -4.51427e-16 0)
(3 -2.66977e-16 0)
(3 -3.46516e-16 0)
(3 -4.3864e-16 0)
(3 -3.96447e-16 0)
(3 -5.08061e-16 0)
(3 -3.49024e-16 0)
(3 1.03997e-15 0)
(3 1.61526e-15 0)
(3 1.91171e-15 0)
(3 2.05711e-15 0)
(3 1.88545e-15 0)
(3 2.1393e-15 0)
(3 2.16544e-15 0)
(3 1.38091e-15 0)
(3 -1.44953e-16 0)
(3 -1.86258e-15 0)
(3 -1.83485e-15 0)
(3 -1.98089e-15 0)
(3 -2.83029e-15 0)
(3 -2.40968e-15 0)
(3 -2.06137e-15 0)
(3 -1.36617e-15 0)
(3 -2.46612e-16 0)
(3 3.94032e-16 0)
(3 6.1315e-16 0)
(3 1.77327e-16 0)
(3 2.78346e-16 0)
(3 1.84961e-15 0)
(3 2.77592e-15 0)
(3 3.00113e-15 0)
(3 2.74831e-15 0)
(3 3.31814e-15 0)
(3 2.70033e-15 0)
(3 1.3586e-15 0)
(3 5.18941e-16 0)
(3 -2.31737e-15 0)
(3 -3.0843e-15 0)
(3 -2.34763e-15 0)
(3 -2.32173e-15 0)
(3 -2.64432e-15 0)
(3 -2.39471e-15 0)
(3 -1.54386e-15 0)
(3 -1.41702e-15 0)
(3 -3.7435e-16 0)
(3 1.03776e-15 0)
(3 2.02867e-15 0)
(3 3.08069e-15 0)
(3 2.88373e-15 0)
(3 2.28172e-15 0)
(3 1.27081e-15 0)
(3 8.71757e-16 0)
(3 4.43448e-16 0)
(3 -4.17967e-16 0)
(3 -4.25732e-16 0)
(3 -1.40719e-16 0)
(3 1.79456e-17 0)
(3 -5.75364e-16 0)
(3 -1.44726e-15 0)
(3 -1.28994e-15 0)
(3 -9.08258e-16 0)
(3 -1.39687e-15 0)
(3 -3.17751e-15 0)
(3 -3.64809e-15 0)
(3 -1.1924e-15 0)
(3 5.93747e-16 0)
(3 1.90601e-15 0)
(3 1.15251e-15 0)
(3 -5.36757e-17 0)
(3 -3.92196e-16 0)
(3 -4.75984e-16 0)
(3 6.21643e-17 0)
(3 2.51318e-16 0)
(3 4.75004e-16 0)
(3 1.22091e-15 0)
(3 8.2949e-16 0)
(3 1.84227e-16 0)
(3 -1.3303e-15 0)
(3 -2.10132e-15 0)
(3 -1.97121e-15 0)
(3 -2.16735e-15 0)
(3 -2.77262e-15 0)
(3 -3.17754e-15 0)
(3 -2.49929e-15 0)
(3 -1.6156e-15 0)
(3 -7.63399e-16 0)
(3 2.15807e-16 0)
(3 1.63473e-16 0)
(3 9.53499e-17 0)
(3 2.84485e-16 0)
(3 9.24798e-16 0)
(3 1.21804e-15 0)
(3 1.23476e-15 0)
(3 1.00123e-15 0)
(3 9.72994e-16 0)
(3 8.63129e-16 0)
(3 5.40505e-16 0)
(3 2.38959e-16 0)
(3 2.00982e-17 0)
(3 -1.16109e-16 0)
(3 -3.87367e-16 0)
(3 -6.92751e-16 0)
(3 -4.36154e-16 0)
(3 2.9096e-16 0)
(3 5.87393e-16 0)
(3 7.04363e-16 0)
(3 8.38582e-16 0)
(3 8.39203e-16 0)
(3 7.30163e-16 0)
(3 3.27612e-16 0)
(3 7.73149e-16 0)
(3 1.15545e-15 0)
(3 -1.17007e-15 0)
(3 -2.51977e-15 0)
(3 -2.49291e-15 0)
(3 -2.55799e-15 0)
(3 -2.51757e-15 0)
(3 -1.32142e-15 0)
(3 -5.3662e-16 0)
(3 2.60487e-16 0)
(3 1.02141e-15 0)
(3 7.33137e-16 0)
(3 -4.06982e-16 0)
(3 -3.26571e-16 0)
(3 1.06907e-17 0)
(3 -2.11604e-16 0)
(3 -4.31308e-16 0)
(3 1.02064e-15 0)
(3 4.13841e-16 0)
(3 -3.81188e-16 0)
(3 -2.42369e-16 0)
(3 1.08831e-16 0)
(3 -1.56629e-15 0)
(3 -2.95426e-15 0)
(3 -1.82599e-15 0)
(3 -1.24376e-15 0)
(3 -1.14241e-15 0)
(3 -1.5595e-15 0)
(3 -1.88374e-15 0)
(3 -2.17592e-15 0)
(3 -5.02191e-16 0)
(3 8.50194e-16 0)
(3 1.45278e-15 0)
(3 2.74792e-15 0)
(3 3.08655e-15 0)
(3 2.81574e-15 0)
(3 2.1073e-15 0)
(3 1.5709e-15 0)
(3 1.19702e-15 0)
(3 6.67447e-17 0)
(3 -6.28855e-16 0)
(3 -1.07371e-15 0)
(3 -8.92299e-16 0)
(3 8.17899e-17 0)
(3 5.82272e-16 0)
(3 -1.59584e-15 0)
(3 -3.35933e-15 0)
(3 -3.85019e-15 0)
(3 -3.89988e-15 0)
(3 -4.27887e-15 0)
(3 -2.87531e-15 0)
(3 1.09429e-15 0)
(3 1.81937e-15 0)
(3 1.67875e-15 0)
(3 1.7757e-15 0)
(3 1.57504e-15 0)
(3 1.13175e-15 0)
(3 -2.72264e-18 0)
(3 -7.86891e-16 0)
(3 -4.70765e-16 0)
(3 -3.04313e-16 0)
(3 -5.01662e-16 0)
(3 -7.1092e-16 0)
(3 -1.08658e-15 0)
(3 -1.55177e-15 0)
(3 -1.77937e-15 0)
(3 -1.82707e-15 0)
(3 -2.51312e-15 0)
(3 -3.04592e-15 0)
(3 -2.30583e-15 0)
(3 -1.40473e-15 0)
(3 -6.23738e-16 0)
(3 6.30602e-17 0)
(3 5.17455e-16 0)
(3 7.03208e-16 0)
(3 1.04527e-15 0)
(3 7.99589e-16 0)
(3 6.89407e-16 0)
(3 5.06007e-16 0)
(3 1.04502e-16 0)
(3 -3.64008e-16 0)
(3 -4.9683e-16 0)
(3 -8.65606e-17 0)
(3 -6.24834e-16 0)
(3 -8.29316e-16 0)
(3 -4.45898e-16 0)
(3 2.58202e-16 0)
(3 6.52483e-16 0)
(3 2.55067e-16 0)
(3 -4.69363e-16 0)
(3 -7.93619e-17 0)
(3 -2.98544e-16 0)
(3 -1.09735e-15 0)
(3 -1.84382e-16 0)
(3 -2.88457e-16 0)
(3 -3.93807e-16 0)
(3 3.7277e-16 0)
(3 2.91197e-16 0)
(3 1.90413e-17 0)
(3 -7.32418e-16 0)
(3 -1.32083e-15 0)
(3 -1.95988e-15 0)
(3 -2.15575e-15 0)
(3 -1.14587e-15 0)
(3 -7.67571e-16 0)
(3 6.82409e-16 0)
(3 7.04439e-16 0)
(3 7.49038e-16 0)
(3 6.59573e-16 0)
(3 -6.56215e-16 0)
(3 -1.29669e-15 0)
(3 -2.00375e-15 0)
(3 -1.55181e-15 0)
(3 -1.06749e-15 0)
(3 -1.16742e-15 0)
(3 -7.49697e-16 0)
(3 -2.83216e-16 0)
(3 -3.1331e-16 0)
(3 -6.71088e-16 0)
(3 -1.4472e-15 0)
(3 -1.29686e-15 0)
(3 -6.61273e-16 0)
(3 1.27011e-17 0)
(3 8.26417e-17 0)
(3 7.90537e-17 0)
(3 1.36358e-16 0)
(3 1.03233e-15 0)
(3 1.28183e-15 0)
(3 1.29856e-15 0)
(3 1.56353e-15 0)
(3 2.42267e-15 0)
(3 2.16362e-15 0)
(3 2.264e-15 0)
(3 2.1773e-15 0)
(3 9.76168e-16 0)
(3 -1.7895e-16 0)
(3 -9.76716e-16 0)
(3 -8.15172e-16 0)
(3 -2.19133e-16 0)
(3 4.28302e-17 0)
(3 -1.00837e-17 0)
(3 2.01317e-16 0)
(3 -2.36676e-16 0)
(3 -2.41257e-15 0)
(3 -3.0212e-15 0)
(3 -2.92851e-15 0)
(3 -2.36994e-15 0)
(3 -1.08527e-15 0)
(3 -4.07311e-16 0)
(3 1.61545e-15 0)
(3 2.12546e-15 0)
(3 2.36482e-15 0)
(3 2.56193e-15 0)
(3 1.32744e-15 0)
(3 -6.15033e-17 0)
(3 -8.36786e-16 0)
(3 -1.33176e-15 0)
(3 -1.04e-15 0)
(3 -1.42674e-15 0)
(3 -9.12072e-16 0)
(3 -9.00891e-16 0)
(3 -2.20309e-15 0)
(3 -2.93847e-15 0)
(3 -3.06424e-15 0)
(3 -2.31653e-15 0)
(3 -1.87391e-15 0)
(3 -5.36047e-16 0)
(3 -1.74831e-16 0)
(3 -1.81487e-16 0)
(3 1.45854e-16 0)
(3 4.38118e-16 0)
(3 3.46491e-16 0)
(3 -8.14381e-17 0)
(3 -1.4883e-16 0)
(3 -4.06369e-16 0)
(3 -1.81443e-16 0)
(3 -2.57055e-16 0)
(3 -2.31783e-16 0)
(3 3.07756e-16 0)
(3 8.88959e-16 0)
(3 9.30521e-16 0)
(3 9.90161e-16 0)
(3 7.55588e-16 0)
(3 1.00719e-15 0)
(3 -1.70886e-16 0)
(3 -6.3956e-16 0)
(3 -4.53118e-16 0)
(3 -4.24198e-16 0)
(3 -3.69582e-16 0)
(3 -9.91617e-17 0)
(3 9.97266e-17 0)
(3 2.82022e-17 0)
(3 -5.07056e-16 0)
(3 -8.24994e-16 0)
(3 -4.197e-16 0)
(3 3.50246e-16 0)
(3 3.8335e-16 0)
(3 3.17806e-16 0)
(3 -4.79616e-16 0)
(3 -2.12207e-15 0)
(3 -1.93538e-15 0)
(3 -1.4037e-15 0)
(3 -4.68652e-16 0)
(3 1.47891e-17 0)
(3 1.32315e-16 0)
(3 -1.25021e-15 0)
(3 -2.31216e-15 0)
(3 -2.26415e-15 0)
(3 -1.72064e-15 0)
(3 -2.1277e-15 0)
(3 -2.85045e-15 0)
(3 -2.47117e-15 0)
(3 -1.56409e-15 0)
(3 -4.2886e-16 0)
(3 -4.99259e-16 0)
(3 -8.52967e-17 0)
(3 -4.4135e-16 0)
(3 -1.03802e-16 0)
(3 2.70864e-16 0)
(3 7.92274e-16 0)
(3 1.85325e-15 0)
(3 2.26925e-15 0)
(3 1.95682e-15 0)
(3 1.94402e-15 0)
(3 1.74949e-15 0)
(3 1.5258e-15 0)
(3 1.70794e-15 0)
(3 1.91903e-15 0)
(3 2.37908e-15 0)
(3 1.81076e-15 0)
(3 -9.37888e-16 0)
(3 -1.41574e-15 0)
(3 -1.31935e-15 0)
(3 -1.03057e-15 0)
(3 -1.91647e-15 0)
(3 -2.7887e-15 0)
(3 -2.43375e-15 0)
(3 -1.63443e-15 0)
(3 -1.74036e-15 0)
(3 -2.5353e-15 0)
(3 -2.98498e-15 0)
(3 -2.61548e-15 0)
(3 -2.83369e-15 0)
(3 -2.93382e-15 0)
(3 -2.03879e-15 0)
(3 -5.22874e-16 0)
(3 -2.86614e-16 0)
(3 1.68978e-15 0)
(3 2.60355e-15 0)
(3 2.20714e-15 0)
(3 9.05427e-16 0)
(3 -1.44197e-15 0)
(3 -1.97992e-15 0)
(3 -2.1811e-15 0)
(3 -2.30283e-15 0)
(3 -2.07998e-15 0)
(3 -2.07768e-15 0)
(3 -2.64327e-15 0)
(3 -2.78749e-15 0)
(3 -2.5936e-15 0)
(3 -1.96697e-15 0)
(3 -1.27145e-15 0)
(3 -4.12882e-16 0)
(3 3.65341e-16 0)
(3 -4.1815e-17 0)
(3 -3.49414e-16 0)
(3 -2.87553e-16 0)
(3 -5.39647e-16 0)
(3 -8.39912e-16 0)
(3 -5.8757e-16 0)
(3 1.08471e-16 0)
(3 4.65268e-16 0)
(3 8.77317e-16 0)
(3 1.73914e-15 0)
(3 1.89878e-15 0)
(3 1.95927e-15 0)
(3 2.53806e-15 0)
(3 1.939e-15 0)
(3 8.5546e-16 0)
(3 2.23921e-16 0)
(3 1.43642e-16 0)
(3 -2.14635e-16 0)
(3 -4.2761e-16 0)
(3 -4.68136e-16 0)
(3 2.96029e-16 0)
(3 1.58622e-15 0)
(3 1.77901e-15 0)
(3 9.58591e-16 0)
(3 -3.47226e-16 0)
(3 -1.00501e-15 0)
(3 -1.65331e-15 0)
(3 -1.58316e-15 0)
(3 -4.8895e-16 0)
(3 9.3036e-16 0)
(3 1.21152e-15 0)
(3 -1.20831e-16 0)
(3 -1.19547e-15 0)
(3 -1.74524e-15 0)
(3 -1.47511e-15 0)
(3 -7.86184e-16 0)
(3 -8.13166e-16 0)
(3 -1.51713e-15 0)
(3 -3.18897e-15 0)
(3 -3.25336e-15 0)
(3 -2.04735e-15 0)
(3 -1.6072e-15 0)
(3 -1.93927e-15 0)
(3 -2.65915e-15 0)
(3 -2.44396e-15 0)
(3 -2.06559e-15 0)
(3 7.67083e-16 0)
(3 3.30065e-15 0)
(3 3.8326e-15 0)
(3 2.77929e-15 0)
(3 1.32465e-15 0)
(3 1.83359e-15 0)
(3 2.88043e-15 0)
(3 2.93229e-15 0)
(3 2.62027e-15 0)
(3 1.19791e-15 0)
(3 6.0772e-16 0)
(3 6.37954e-17 0)
(3 3.40279e-16 0)
(3 1.12979e-15 0)
(3 5.18834e-16 0)
(3 -1.14964e-15 0)
(3 -2.03537e-15 0)
(3 -1.8378e-15 0)
(3 -1.59487e-15 0)
(3 -2.46376e-15 0)
(3 -3.08991e-15 0)
(3 -2.57641e-15 0)
(3 -1.7074e-15 0)
(3 -1.43053e-15 0)
(3 -1.18342e-15 0)
(3 -7.11055e-16 0)
(3 -1.1809e-15 0)
(3 -2.66883e-15 0)
(3 -2.49868e-15 0)
(3 -4.08218e-15 0)
(3 -5.36152e-15 0)
(3 -4.33836e-15 0)
(3 -1.30805e-15 0)
(3 3.53708e-17 0)
(3 -4.42318e-17 0)
(3 -4.78609e-16 0)
(3 -9.26013e-16 0)
(3 -1.02593e-15 0)
(3 -9.8009e-16 0)
(3 -5.37893e-16 0)
(3 -6.13624e-16 0)
(3 -1.08241e-15 0)
(3 -1.00096e-15 0)
(3 -7.97184e-16 0)
(3 -6.55473e-17 0)
(3 7.69035e-17 0)
(3 -2.30786e-16 0)
(3 -1.34244e-16 0)
(3 3.92574e-16 0)
(3 4.96998e-16 0)
(3 -2.15045e-16 0)
(3 -3.86183e-16 0)
(3 -7.66673e-16 0)
(3 -1.07584e-15 0)
(3 -8.40986e-16 0)
(3 -7.24121e-16 0)
(3 -2.4139e-16 0)
(3 1.66677e-16 0)
(3 6.98768e-16 0)
(3 7.32714e-16 0)
(3 1.16768e-15 0)
(3 1.2982e-15 0)
(3 1.52985e-15 0)
(3 1.2154e-15 0)
(3 1.57476e-15 0)
(3 1.65976e-15 0)
(3 1.61848e-15 0)
(3 9.94512e-16 0)
(3 4.58284e-16 0)
(3 4.83675e-16 0)
(3 1.0416e-15 0)
(3 1.15483e-15 0)
(3 1.31475e-15 0)
(3 1.27996e-15 0)
(3 1.53161e-15 0)
(3 -1.25261e-16 0)
(3 -8.08729e-16 0)
(3 -9.34015e-16 0)
(3 8.33837e-16 0)
(3 8.48829e-16 0)
(3 1.17059e-15 0)
(3 1.2498e-15 0)
(3 2.69925e-16 0)
(3 -6.51866e-16 0)
(3 -1.49399e-15 0)
(3 -1.14963e-15 0)
(3 -1.90789e-16 0)
(3 -6.42828e-17 0)
(3 -6.93328e-16 0)
(3 -1.71514e-15 0)
(3 -1.69876e-15 0)
(3 -8.43861e-16 0)
(3 -3.43389e-16 0)
(3 -2.78876e-16 0)
(3 9.45136e-17 0)
(3 4.72077e-16 0)
(3 1.97367e-15 0)
(3 4.75315e-15 0)
(3 4.27449e-15 0)
(3 2.65571e-15 0)
(3 1.84551e-15 0)
(3 1.89812e-15 0)
(3 2.19212e-15 0)
(3 2.31475e-15 0)
(3 1.58625e-15 0)
(3 9.83519e-16 0)
(3 1.22967e-15 0)
(3 3.76221e-16 0)
(3 -6.0918e-17 0)
(3 4.9811e-16 0)
(3 -7.424e-16 0)
(3 -2.92521e-15 0)
(3 -3.18759e-15 0)
(3 -2.66036e-15 0)
(3 -1.58046e-15 0)
(3 -1.30699e-15 0)
(3 -1.44653e-15 0)
(3 -1.14088e-15 0)
(3 -1.01986e-15 0)
(3 -4.8356e-16 0)
(3 4.91371e-16 0)
(3 1.25998e-15 0)
(3 5.33713e-16 0)
(3 -5.92545e-17 0)
(3 -1.46646e-15 0)
(3 -2.7167e-15 0)
(3 -3.97352e-15 0)
(3 -3.12579e-15 0)
(3 -1.19975e-15 0)
(3 -2.0549e-15 0)
(3 -2.3413e-15 0)
(3 -2.16955e-15 0)
(3 -1.1069e-15 0)
(3 6.58949e-16 0)
(3 4.21541e-16 0)
(3 -5.13908e-16 0)
(3 -8.28416e-16 0)
(3 -1.2463e-15 0)
(3 -1.05134e-15 0)
(3 -1.64384e-17 0)
(3 9.64629e-16 0)
(3 1.93849e-15 0)
(3 2.03781e-15 0)
(3 2.0806e-15 0)
(3 2.13756e-15 0)
(3 2.10703e-15 0)
(3 -2.12599e-17 0)
(3 3.84278e-16 0)
(3 1.95747e-16 0)
(3 -6.40048e-17 0)
(3 2.00471e-16 0)
(3 4.46783e-17 0)
(3 3.4109e-16 0)
(3 9.74077e-16 0)
(3 3.32835e-16 0)
(3 6.30155e-17 0)
(3 -4.9156e-17 0)
(3 2.43024e-16 0)
(3 -6.12828e-16 0)
(3 -1.39154e-15 0)
(3 -1.34657e-15 0)
(3 -7.91614e-16 0)
(3 -5.65435e-16 0)
(3 8.0776e-16 0)
(3 1.38953e-15 0)
(3 1.6173e-15 0)
(3 7.56866e-16 0)
(3 -1.33851e-16 0)
(3 -4.2103e-16 0)
(3 5.66837e-16 0)
(3 7.34022e-16 0)
(3 6.54803e-16 0)
(3 9.28801e-16 0)
(3 8.07236e-16 0)
(3 1.15323e-15 0)
(3 1.12723e-15 0)
(3 9.71761e-16 0)
(3 7.1984e-16 0)
(3 -7.78861e-17 0)
(3 -1.30455e-16 0)
(3 -5.06049e-16 0)
(3 -8.07535e-16 0)
(3 -1.45603e-16 0)
(3 1.03937e-15 0)
(3 1.61542e-15 0)
(3 6.18838e-17 0)
(3 -7.99993e-16 0)
(3 -1.17908e-15 0)
(3 -5.37859e-16 0)
(3 4.11991e-16 0)
(3 8.77029e-16 0)
(3 7.9762e-16 0)
(3 7.46291e-16 0)
(3 7.9456e-16 0)
(3 4.0426e-16 0)
(3 1.84015e-16 0)
(3 6.26595e-16 0)
(3 3.15192e-16 0)
(3 3.66171e-16 0)
(3 5.42244e-16 0)
(3 5.8779e-16 0)
(3 8.43639e-16 0)
(3 2.01591e-15 0)
(3 1.69357e-15 0)
(3 2.0573e-16 0)
(3 -2.07305e-16 0)
(3 -6.02397e-16 0)
(3 -8.03771e-16 0)
(3 -1.50654e-15 0)
(3 -3.28134e-15 0)
(3 -3.35648e-15 0)
(3 -2.22317e-15 0)
(3 -1.47449e-15 0)
(3 -1.73597e-15 0)
(3 -1.69484e-15 0)
(3 -4.53162e-16 0)
(3 1.17875e-15 0)
(3 1.18615e-15 0)
(3 1.40819e-15 0)
(3 2.13403e-15 0)
(3 1.45451e-15 0)
(3 -8.88132e-16 0)
(3 -8.01173e-16 0)
(3 -9.77325e-16 0)
(3 -1.62393e-15 0)
(3 -1.74175e-15 0)
(3 -2.58721e-16 0)
(3 1.40548e-16 0)
(3 8.65277e-16 0)
(3 7.69624e-16 0)
(3 5.14977e-16 0)
(3 -1.47706e-16 0)
(3 -4.51287e-16 0)
(3 -8.84758e-16 0)
(3 -1.78597e-16 0)
(3 2.07034e-15 0)
(3 2.25885e-15 0)
(3 2.32204e-15 0)
(3 2.54729e-15 0)
(3 1.41671e-15 0)
(3 1.15967e-15 0)
(3 1.64064e-15 0)
(3 4.59511e-17 0)
(3 -1.89299e-16 0)
(3 6.13313e-16 0)
(3 7.6257e-16 0)
(3 1.52866e-16 0)
(3 2.52776e-16 0)
(3 3.11427e-16 0)
(3 6.09765e-16 0)
(3 -2.822e-16 0)
(3 -9.42416e-16 0)
(3 -1.53535e-15 0)
(3 -2.02049e-15 0)
(3 -2.36475e-15 0)
(3 -2.22026e-15 0)
(3 -2.62424e-15 0)
(3 -2.97443e-15 0)
(3 -3.17269e-15 0)
(3 -2.03058e-15 0)
(3 -7.36621e-16 0)
(3 -7.93358e-16 0)
(3 -1.33576e-15 0)
(3 -1.35695e-15 0)
(3 -1.11418e-15 0)
(3 -4.97159e-16 0)
(3 -9.59947e-17 0)
(3 4.52106e-16 0)
(3 9.1003e-16 0)
(3 1.40195e-15 0)
(3 3.41318e-16 0)
(3 4.64081e-16 0)
(3 7.96724e-16 0)
(3 -4.91302e-16 0)
(3 -9.59609e-16 0)
(3 -7.69632e-16 0)
(3 -2.74949e-17 0)
(3 1.60339e-16 0)
(3 7.53186e-16 0)
(3 1.74338e-15 0)
(3 2.14285e-15 0)
(3 2.01467e-15 0)
(3 1.01059e-15 0)
(3 -9.37075e-16 0)
(3 -1.48274e-15 0)
(3 -9.58246e-16 0)
(3 -2.05461e-16 0)
(3 -2.45903e-16 0)
(3 -7.92403e-16 0)
(3 -1.27128e-15 0)
(3 -1.48874e-15 0)
(3 -3.28294e-16 0)
(3 4.70002e-17 0)
(3 1.3637e-16 0)
(3 3.29291e-16 0)
(3 3.25432e-16 0)
(3 1.61419e-15 0)
(3 2.0287e-15 0)
(3 1.56426e-15 0)
(3 -4.63888e-17 0)
(3 -6.08198e-16 0)
(3 -1.75137e-15 0)
(3 -1.97415e-15 0)
(3 -9.85603e-16 0)
(3 -7.11098e-16 0)
(3 -1.03827e-15 0)
(3 -1.37811e-15 0)
(3 -1.81806e-15 0)
(3 -1.62814e-15 0)
(3 -7.15071e-16 0)
(3 -1.26704e-17 0)
(3 4.22646e-16 0)
(3 -2.74732e-16 0)
(3 8.08213e-16 0)
(3 2.58696e-15 0)
(3 2.98947e-15 0)
(3 1.54418e-15 0)
(3 8.83908e-16 0)
(3 1.02453e-15 0)
(3 -3.96255e-16 0)
(3 -1.51926e-15 0)
(3 -1.61227e-15 0)
(3 -2.00688e-15 0)
(3 -2.69027e-15 0)
(3 -3.15429e-15 0)
(3 -1.86935e-15 0)
(3 -1.35545e-15 0)
(3 8.72881e-18 0)
(3 2.0114e-15 0)
(3 1.91508e-15 0)
(3 1.87478e-15 0)
(3 2.45461e-15 0)
(3 2.62512e-15 0)
(3 2.31002e-15 0)
(3 2.16483e-15 0)
(3 9.10652e-16 0)
(3 -6.33853e-17 0)
(3 -4.11605e-16 0)
(3 -4.74863e-17 0)
(3 -5.28527e-16 0)
(3 -2.43761e-16 0)
(3 -1.0988e-16 0)
(3 -4.98734e-16 0)
(3 -9.73897e-16 0)
(3 -1.11456e-15 0)
(3 -1.20016e-15 0)
(3 -1.22154e-15 0)
(3 -1.31097e-15 0)
(3 -1.37275e-15 0)
(3 -2.41079e-15 0)
(3 -2.01257e-15 0)
(3 -1.32437e-15 0)
(3 -1.18313e-15 0)
(3 -1.52048e-15 0)
(3 -2.46048e-15 0)
(3 -2.8446e-15 0)
(3 -2.28156e-15 0)
(3 -7.44008e-16 0)
(3 -8.76074e-16 0)
(3 -1.42055e-15 0)
(3 -1.72673e-15 0)
(3 -1.46625e-15 0)
(3 1.83783e-16 0)
(3 6.77585e-16 0)
(3 8.55072e-16 0)
(3 9.84181e-16 0)
(3 -3.93285e-16 0)
(3 -7.3155e-16 0)
(3 -5.92342e-16 0)
(3 3.96167e-17 0)
(3 1.9364e-16 0)
(3 9.63274e-16 0)
(3 1.47722e-15 0)
(3 2.26321e-15 0)
(3 3.07523e-15 0)
(3 4.64149e-15 0)
(3 5.27713e-15 0)
(3 3.30906e-15 0)
(3 2.08483e-15 0)
(3 1.40186e-15 0)
(3 4.51048e-16 0)
(3 -1.11213e-15 0)
(3 -9.61374e-16 0)
(3 -4.78504e-16 0)
(3 -4.94702e-16 0)
(3 -1.20167e-15 0)
(3 -1.59707e-15 0)
(3 -8.23514e-16 0)
(3 4.1589e-16 0)
(3 7.41166e-16 0)
(3 6.49626e-16 0)
(3 6.99558e-16 0)
(3 1.12594e-15 0)
(3 1.19806e-15 0)
(3 3.12879e-16 0)
(3 -3.67181e-18 0)
(3 6.14178e-16 0)
(3 6.469e-16 0)
(3 2.52175e-16 0)
(3 -5.88252e-16 0)
(3 -6.84049e-16 0)
(3 -3.44181e-16 0)
(3 -8.54953e-16 0)
(3 -8.95475e-16 0)
(3 -1.69645e-15 0)
(3 -1.52794e-15 0)
(3 -1.35488e-15 0)
(3 -1.17584e-15 0)
(3 -1.59542e-15 0)
(3 -1.25182e-15 0)
(3 -6.58898e-16 0)
(3 -9.71727e-16 0)
(3 3.06714e-16 0)
(3 6.68857e-16 0)
(3 -2.44102e-16 0)
(3 -6.44779e-16 0)
(3 -1.9005e-15 0)
(3 -2.69345e-15 0)
(3 -3.46997e-15 0)
(3 -3.11189e-15 0)
(3 -2.56781e-15 0)
(3 -1.55781e-15 0)
(3 -1.0629e-15 0)
(3 -2.4458e-16 0)
(3 1.40485e-15 0)
(3 1.34188e-15 0)
(3 1.51042e-15 0)
(3 1.56153e-15 0)
(3 2.39445e-15 0)
(3 2.90765e-15 0)
(3 2.00999e-15 0)
(3 1.46786e-15 0)
(3 3.58459e-17 0)
(3 -4.7633e-16 0)
(3 3.11974e-19 0)
(3 -3.5336e-17 0)
(3 -5.56672e-16 0)
(3 -5.83544e-16 0)
(3 -2.45568e-16 0)
(3 -4.35806e-16 0)
(3 -4.46572e-16 0)
(3 -1.39403e-15 0)
(3 -1.86414e-15 0)
(3 -1.73498e-15 0)
(3 -6.23335e-16 0)
(3 -4.27754e-16 0)
(3 -4.15507e-16 0)
(3 -8.50773e-16 0)
(3 -1.04843e-15 0)
(3 -1.25782e-15 0)
(3 -1.07023e-15 0)
(3 -1.00671e-15 0)
(3 -6.88517e-16 0)
(3 -4.21991e-16 0)
(3 2.30721e-16 0)
(3 6.26695e-16 0)
(3 6.5906e-16 0)
(3 5.96798e-16 0)
(3 6.07532e-16 0)
(3 1.02399e-15 0)
(3 1.4351e-15 0)
(3 1.12799e-15 0)
(3 1.10722e-15 0)
(3 1.19969e-15 0)
(3 6.26862e-16 0)
(3 8.52119e-16 0)
(3 1.79747e-15 0)
(3 2.23733e-15 0)
(3 2.29253e-15 0)
(3 2.36245e-15 0)
(3 2.39177e-15 0)
(3 2.75548e-15 0)
(3 2.51901e-15 0)
(3 1.91673e-15 0)
(3 1.20415e-15 0)
(3 1.8632e-15 0)
(3 2.42339e-15 0)
(3 1.02276e-15 0)
(3 -2.21867e-16 0)
(3 9.70327e-18 0)
(3 -8.12043e-16 0)
(3 -2.34057e-15 0)
(3 -2.13795e-15 0)
(3 -1.99206e-15 0)
(3 -8.7846e-16 0)
(3 -5.44919e-16 0)
(3 -1.61345e-16 0)
(3 5.30146e-16 0)
(3 -7.76498e-17 0)
(3 -1.41242e-16 0)
(3 1.39181e-16 0)
(3 -3.36557e-17 0)
(3 -5.04164e-16 0)
(3 -4.71595e-17 0)
(3 1.54665e-16 0)
(3 1.97322e-16 0)
(3 -6.32168e-16 0)
(3 -3.1124e-16 0)
(3 -2.11384e-16 0)
(3 -9.1338e-16 0)
(3 -2.35553e-15 0)
(3 -3.03851e-15 0)
(3 -2.99616e-15 0)
(3 -3.46011e-15 0)
(3 -3.52631e-15 0)
(3 -4.34755e-15 0)
(3 -4.18705e-15 0)
(3 -3.02999e-15 0)
(3 -1.75311e-15 0)
(3 -2.01398e-15 0)
(3 -2.00284e-15 0)
(3 -1.83801e-15 0)
(3 -2.40395e-15 0)
(3 -2.51237e-15 0)
(3 -1.24125e-15 0)
(3 -6.25024e-16 0)
(3 -2.28894e-16 0)
(3 -1.67752e-16 0)
(3 -2.39046e-17 0)
(3 -7.36424e-16 0)
(3 -1.43507e-15 0)
(3 -8.45469e-16 0)
(3 2.95437e-17 0)
(3 1.64825e-15 0)
(3 1.63481e-15 0)
(3 1.54961e-15 0)
(3 7.9085e-16 0)
(3 -1.53811e-16 0)
(3 -1.22765e-15 0)
(3 -1.29582e-15 0)
(3 3.91192e-17 0)
(3 4.97902e-17 0)
(3 -9.3922e-17 0)
(3 -1.10844e-16 0)
(3 -1.35505e-16 0)
(3 -2.78777e-16 0)
(3 -4.37749e-16 0)
(3 -5.07766e-16 0)
(3 -2.92042e-16 0)
(3 7.09483e-17 0)
(3 5.75051e-16 0)
(3 1.26829e-15 0)
(3 9.82393e-16 0)
(3 5.12225e-16 0)
(3 9.13238e-17 0)
(3 1.81062e-16 0)
(3 1.43739e-16 0)
(3 6.9276e-16 0)
(3 5.1278e-16 0)
(3 1.20909e-16 0)
(3 3.96142e-16 0)
(3 1.46086e-15 0)
(3 2.50211e-15 0)
(3 2.04604e-15 0)
(3 4.31049e-16 0)
(3 2.60241e-16 0)
(3 5.48175e-16 0)
(3 8.16751e-16 0)
(3 7.36173e-16 0)
(3 1.29164e-15 0)
(3 1.46765e-15 0)
(3 1.8897e-15 0)
(3 2.3453e-15 0)
(3 1.97056e-15 0)
(3 1.77468e-15 0)
(3 1.64223e-15 0)
(3 1.16274e-15 0)
(3 2.11551e-16 0)
(3 -5.03827e-17 0)
(3 1.18728e-15 0)
(3 1.68759e-15 0)
(3 2.26553e-15 0)
(3 2.45393e-15 0)
(3 2.14874e-15 0)
(3 1.07366e-15 0)
(3 -2.42813e-16 0)
(3 -3.00224e-16 0)
(3 -3.33411e-16 0)
(3 -6.13518e-16 0)
(3 -1.2062e-15 0)
(3 -1.16208e-15 0)
(3 -8.09579e-16 0)
(3 6.1903e-17 0)
(3 3.73545e-16 0)
(3 2.39422e-17 0)
(3 1.073e-16 0)
(3 2.17531e-16 0)
(3 -3.67631e-16 0)
(3 -1.12993e-15 0)
(3 -1.11749e-15 0)
(3 -4.90935e-16 0)
(3 4.42929e-16 0)
(3 2.29272e-16 0)
(3 3.11823e-16 0)
(3 4.50055e-16 0)
(3 -8.25931e-16 0)
(3 -1.51689e-15 0)
(3 -2.08984e-15 0)
(3 -2.60595e-15 0)
(3 -2.36141e-15 0)
(3 -2.44128e-15 0)
(3 -3.20932e-15 0)
(3 -3.76387e-15 0)
(3 -2.27956e-15 0)
(3 -1.81165e-15 0)
(3 -1.76186e-15 0)
(3 -1.18689e-15 0)
(3 -9.50844e-16 0)
(3 -5.48665e-16 0)
(3 3.79736e-16 0)
(3 1.4712e-15 0)
(3 1.37514e-15 0)
(3 7.09834e-16 0)
(3 3.18699e-16 0)
(3 9.8014e-17 0)
(3 -4.99765e-16 0)
(3 -7.06018e-16 0)
(3 -5.58328e-16 0)
(3 2.33909e-16 0)
(3 6.13673e-16 0)
(3 1.05741e-15 0)
(3 1.6832e-16 0)
(3 -5.38956e-16 0)
(3 -2.23095e-15 0)
(3 -3.22746e-15 0)
(3 -2.85368e-15 0)
(3 6.37006e-17 0)
(3 2.70408e-16 0)
(3 4.52269e-16 0)
(3 5.49038e-16 0)
(3 3.24053e-16 0)
(3 -3.58556e-16 0)
(3 -9.73764e-16 0)
(3 -5.3527e-16 0)
(3 9.7768e-16 0)
(3 2.13888e-15 0)
(3 1.61361e-15 0)
(3 2.04503e-16 0)
(3 1.66528e-16 0)
(3 6.3419e-16 0)
(3 9.51805e-16 0)
(3 6.96874e-16 0)
(3 6.75796e-16 0)
(3 4.68529e-16 0)
(3 9.44709e-16 0)
(3 1.12879e-15 0)
(3 7.75895e-16 0)
(3 1.10406e-15 0)
(3 1.39892e-15 0)
(3 1.31593e-15 0)
(3 1.2602e-15 0)
(3 1.06079e-15 0)
(3 7.422e-16 0)
(3 9.35824e-16 0)
(3 9.14161e-16 0)
(3 1.31925e-15 0)
(3 2.13144e-15 0)
(3 2.19272e-15 0)
(3 1.84074e-15 0)
(3 2.08712e-15 0)
(3 2.02092e-15 0)
(3 1.84471e-15 0)
(3 1.62391e-15 0)
(3 4.36704e-16 0)
(3 -3.30773e-16 0)
(3 -2.7916e-16 0)
(3 4.15332e-16 0)
(3 1.2697e-15 0)
(3 1.61333e-15 0)
(3 1.20097e-15 0)
(3 8.37894e-16 0)
(3 1.6314e-16 0)
(3 -5.92909e-16 0)
(3 -1.39929e-16 0)
(3 -1.18736e-16 0)
(3 -1.13108e-16 0)
(3 -6.84647e-16 0)
(3 -5.21152e-16 0)
(3 -7.9668e-16 0)
(3 -1.2582e-15 0)
(3 -8.89565e-16 0)
(3 -6.48217e-16 0)
(3 -5.77429e-16 0)
(3 1.3063e-16 0)
(3 3.79681e-16 0)
(3 -4.82366e-16 0)
(3 5.25617e-18 0)
(3 1.05713e-15 0)
(3 1.44811e-15 0)
(3 1.72373e-15 0)
(3 1.5612e-15 0)
(3 9.29949e-16 0)
(3 -6.66149e-17 0)
(3 -3.17028e-16 0)
(3 -6.82692e-16 0)
(3 -8.32611e-16 0)
(3 -3.0949e-16 0)
(3 9.04794e-16 0)
(3 1.12219e-15 0)
(3 1.70475e-16 0)
(3 -5.74244e-16 0)
(3 -1.26337e-16 0)
(3 -1.19445e-16 0)
(3 -1.88508e-16 0)
(3 -1.80921e-16 0)
(3 1.17905e-16 0)
(3 9.91081e-16 0)
(3 1.48525e-15 0)
(3 7.02441e-16 0)
(3 1.9626e-16 0)
(3 3.82714e-16 0)
(3 5.69274e-16 0)
(3 7.01026e-16 0)
(3 7.52524e-16 0)
(3 -2.7142e-16 0)
(3 -6.05765e-16 0)
(3 -2.31182e-16 0)
(3 -1.14872e-15 0)
(3 -1.39215e-15 0)
(3 -2.09094e-15 0)
(3 -2.07562e-15 0)
(3 -2.30914e-15 0)
(3 6.06209e-17 0)
(3 2.78262e-16 0)
(3 1.66371e-16 0)
(3 1.75716e-17 0)
(3 2.3585e-16 0)
(3 1.21633e-16 0)
(3 -4.99511e-16 0)
(3 -5.49846e-16 0)
(3 6.32925e-16 0)
(3 1.03307e-15 0)
(3 6.69593e-16 0)
(3 1.81947e-16 0)
(3 1.25541e-16 0)
(3 3.95451e-16 0)
(3 4.84667e-16 0)
(3 6.14114e-17 0)
(3 1.09378e-16 0)
(3 -3.65868e-16 0)
(3 -7.70761e-16 0)
(3 -5.09345e-16 0)
(3 -7.79758e-16 0)
(3 -7.76309e-16 0)
(3 -7.83577e-16 0)
(3 -1.48982e-17 0)
(3 2.46175e-16 0)
(3 5.86351e-16 0)
(3 2.17298e-16 0)
(3 6.53272e-16 0)
(3 1.05032e-15 0)
(3 1.09263e-15 0)
(3 1.12525e-15 0)
(3 1.13415e-15 0)
(3 1.08762e-15 0)
(3 2.54001e-15 0)
(3 3.0017e-15 0)
(3 2.33512e-15 0)
(3 9.81384e-16 0)
(3 4.36066e-17 0)
(3 -7.84482e-16 0)
(3 -9.26018e-16 0)
(3 -2.94444e-16 0)
(3 3.70068e-18 0)
(3 -4.38939e-16 0)
(3 -8.28585e-16 0)
(3 -1.26235e-15 0)
(3 -1.52106e-15 0)
(3 -7.90954e-16 0)
(3 -6.00465e-17 0)
(3 2.30265e-16 0)
(3 2.43125e-16 0)
(3 -4.46536e-17 0)
(3 -5.21944e-16 0)
(3 -1.43662e-15 0)
(3 -1.5097e-15 0)
(3 -7.25398e-16 0)
(3 -4.44198e-16 0)
(3 -1.03639e-16 0)
(3 1.53485e-15 0)
(3 1.76168e-15 0)
(3 1.57309e-15 0)
(3 7.42001e-16 0)
(3 7.97857e-16 0)
(3 1.48178e-15 0)
(3 1.70631e-15 0)
(3 1.65429e-15 0)
(3 1.32363e-15 0)
(3 1.06324e-15 0)
(3 1.71932e-15 0)
(3 2.07714e-15 0)
(3 1.66166e-15 0)
(3 1.98484e-15 0)
(3 2.03757e-15 0)
(3 1.57845e-15 0)
(3 1.60241e-15 0)
(3 1.60444e-15 0)
(3 1.23348e-15 0)
(3 1.2631e-15 0)
(3 9.37422e-16 0)
(3 6.36708e-16 0)
(3 9.6179e-16 0)
(3 1.50925e-15 0)
(3 1.55072e-15 0)
(3 1.23158e-15 0)
(3 1.02718e-15 0)
(3 1.74403e-15 0)
(3 2.09583e-15 0)
(3 1.71168e-15 0)
(3 1.48936e-15 0)
(3 -2.0135e-16 0)
(3 -2.31881e-15 0)
(3 -3.11424e-15 0)
(3 -2.28494e-15 0)
(3 -1.61693e-15 0)
(3 -1.01526e-15 0)
(3 -8.86372e-16 0)
(3 -1.41792e-15 0)
(3 5.14061e-17 0)
(3 -5.52263e-17 0)
(3 -2.6151e-16 0)
(3 -3.58884e-16 0)
(3 -2.68975e-16 0)
(3 -4.51503e-16 0)
(3 -4.21778e-16 0)
(3 7.3523e-16 0)
(3 4.95226e-16 0)
(3 4.08531e-16 0)
(3 3.2238e-16 0)
(3 3.84291e-17 0)
(3 -5.23584e-16 0)
(3 -8.00953e-16 0)
(3 -1.05878e-15 0)
(3 -1.6994e-15 0)
(3 -1.90076e-15 0)
(3 -1.43158e-15 0)
(3 -1.71396e-15 0)
(3 -1.76916e-15 0)
(3 -1.31748e-15 0)
(3 -1.22988e-15 0)
(3 -1.51821e-15 0)
(3 -2.00433e-15 0)
(3 -1.27557e-15 0)
(3 -1.06826e-15 0)
(3 -7.63709e-16 0)
(3 -3.6879e-16 0)
(3 9.10403e-18 0)
(3 -1.05895e-16 0)
(3 1.19806e-16 0)
(3 7.47243e-16 0)
(3 2.10124e-15 0)
(3 2.40454e-15 0)
(3 2.58047e-15 0)
(3 2.22539e-15 0)
(3 1.3867e-15 0)
(3 4.69187e-16 0)
(3 -2.4244e-16 0)
(3 -3.15399e-16 0)
(3 1.22638e-16 0)
(3 8.53082e-17 0)
(3 -5.02197e-16 0)
(3 -3.48363e-16 0)
(3 -7.32077e-16 0)
(3 -9.15446e-16 0)
(3 -6.9391e-16 0)
(3 -9.06221e-16 0)
(3 -6.88742e-16 0)
(3 -2.44291e-16 0)
(3 2.36882e-16 0)
(3 -3.25075e-17 0)
(3 -1.28249e-17 0)
(3 5.51388e-18 0)
(3 5.2195e-16 0)
(3 9.5192e-16 0)