/*--------------------------------*- C++ -*----------------------------------*\
  =========                 |
  \\      /  F ield         | OpenFOAM: The Open Source CFD Toolbox
   \\    /   O peration     | Website:  https://openfoam.org
    \\  /    A nd           | Version:  7
     \\/     M anipulation  |
\*---------------------------------------------------------------------------*/
FoamFile
{
    version     2.0;
    format      ascii;
    class       volVectorField;
    location    "2.3";
    object      U;
}
// * * * * * * * * * * * * * * * * * * * * * * * * * * * * * * * * * * * * * //

dimensions      [0 1 -1 0 0 0 0];

internalField   nonuniform List<vector> 
73728
(
(3 4.85945e-18 0)
(3 -1.12884e-18 0)
(3 -1.03604e-17 0)
(3 -1.09701e-16 0)
(3 -1.45092e-16 0)
(3 -1.52999e-16 0)
(3 -2.28093e-16 0)
(3 8.03684e-17 0)
(3 4.046e-16 0)
(3 2.73042e-17 0)
(3 -1.00318e-15 0)
(3 -1.22874e-15 0)
(3 -1.45733e-15 0)
(3 -8.82126e-16 0)
(3 -3.86e-16 0)
(3 -3.28994e-16 0)
(3 -4.8186e-16 0)
(3 -4.80921e-16 0)
(3 -7.18687e-16 0)
(3 -8.55243e-16 0)
(3 -1.14637e-15 0)
(3 -8.31375e-16 0)
(3 3.14167e-16 0)
(3 1.12945e-15 0)
(3 1.70001e-15 0)
(3 8.25496e-16 0)
(3 2.4757e-16 0)
(3 5.18994e-16 0)
(3 8.60822e-16 0)
(3 3.08404e-16 0)
(3 -4.99594e-16 0)
(3 -1.04842e-15 0)
(3 -8.37394e-16 0)
(3 -3.76725e-16 0)
(3 -3.32891e-16 0)
(3 -2.39673e-16 0)
(3 5.00629e-16 0)
(3 1.01987e-15 0)
(3 6.21963e-16 0)
(3 1.26408e-15 0)
(3 1.8485e-15 0)
(3 2.16411e-15 0)
(3 2.09789e-15 0)
(3 2.05257e-15 0)
(3 1.89966e-15 0)
(3 9.81451e-16 0)
(3 -5.30921e-16 0)
(3 -8.53303e-16 0)
(3 -1.09487e-15 0)
(3 -2.73203e-15 0)
(3 -2.9176e-15 0)
(3 -1.79661e-15 0)
(3 -1.16986e-15 0)
(3 -2.72894e-16 0)
(3 3.97474e-16 0)
(3 1.3386e-15 0)
(3 1.80996e-15 0)
(3 2.36263e-15 0)
(3 2.40911e-15 0)
(3 1.43471e-15 0)
(3 -2.21504e-17 0)
(3 -7.19075e-16 0)
(3 -1.73979e-15 0)
(3 -1.36914e-15 0)
(3 -8.12862e-16 0)
(3 -1.01302e-15 0)
(3 -1.2877e-15 0)
(3 -1.41203e-15 0)
(3 -1.14477e-15 0)
(3 -6.21198e-16 0)
(3 -1.42776e-16 0)
(3 2.93934e-16 0)
(3 8.97705e-16 0)
(3 1.03453e-15 0)
(3 8.71405e-16 0)
(3 7.94361e-16 0)
(3 8.83774e-16 0)
(3 9.2283e-16 0)
(3 5.87521e-16 0)
(3 2.42471e-16 0)
(3 4.27592e-16 0)
(3 3.95222e-16 0)
(3 8.61221e-16 0)
(3 8.42688e-16 0)
(3 3.49337e-17 0)
(3 8.86303e-17 0)
(3 -1.47631e-16 0)
(3 -6.91286e-16 0)
(3 -5.15562e-16 0)
(3 -4.08283e-16 0)
(3 -3.36034e-16 0)
(3 3.52873e-17 0)
(3 1.46527e-15 0)
(3 2.52387e-15 0)
(3 2.49616e-15 0)
(3 1.56621e-15 0)
(3 1.0329e-16 0)
(3 1.02792e-16 0)
(3 -1.25952e-16 0)
(3 -4.23594e-16 0)
(3 -3.65766e-16 0)
(3 -3.87093e-16 0)
(3 -6.02535e-16 0)
(3 -1.04301e-15 0)
(3 -7.71033e-16 0)
(3 -5.9745e-16 0)
(3 -1.65207e-15 0)
(3 -2.58815e-15 0)
(3 -2.92045e-15 0)
(3 -2.70467e-15 0)
(3 -1.41275e-15 0)
(3 -1.62392e-15 0)
(3 -1.66827e-15 0)
(3 -1.64916e-15 0)
(3 -1.53648e-15 0)
(3 -1.43203e-15 0)
(3 -1.69196e-15 0)
(3 -1.41418e-15 0)
(3 1.87312e-16 0)
(3 1.61582e-15 0)
(3 1.69745e-15 0)
(3 5.94653e-16 0)
(3 -1.03558e-16 0)
(3 3.68307e-16 0)
(3 9.67228e-16 0)
(3 5.91967e-16 0)
(3 -4.36527e-16 0)
(3 -6.42641e-16 0)
(3 -4.74134e-16 0)
(3 -5.01252e-16 0)
(3 -5.96305e-16 0)
(3 -6.01335e-17 0)
(3 3.59442e-16 0)
(3 8.8274e-16 0)
(3 1.21179e-15 0)
(3 4.78657e-16 0)
(3 7.94985e-16 0)
(3 2.36995e-15 0)
(3 2.59503e-15 0)
(3 2.71212e-15 0)
(3 1.72159e-15 0)
(3 -7.87292e-16 0)
(3 -2.85665e-15 0)
(3 -3.87608e-15 0)
(3 -3.73696e-15 0)
(3 -5.11549e-15 0)
(3 -4.64693e-15 0)
(3 -2.50423e-15 0)
(3 -1.15285e-15 0)
(3 7.41875e-16 0)
(3 2.54587e-15 0)
(3 3.13849e-15 0)
(3 4.44798e-15 0)
(3 5.16121e-15 0)
(3 3.29047e-15 0)
(3 1.65663e-15 0)
(3 -3.44147e-16 0)
(3 -1.15675e-15 0)
(3 -1.61226e-15 0)
(3 -1.10842e-15 0)
(3 -5.77018e-16 0)
(3 -9.99936e-16 0)
(3 -2.02046e-15 0)
(3 -2.28184e-15 0)
(3 -2.08477e-15 0)
(3 -1.07984e-15 0)
(3 -3.2182e-17 0)
(3 -1.46902e-17 0)
(3 1.28657e-15 0)
(3 2.12978e-15 0)
(3 2.62643e-15 0)
(3 3.04254e-15 0)
(3 3.25785e-15 0)
(3 1.90812e-15 0)
(3 8.29031e-16 0)
(3 6.84077e-16 0)
(3 1.08242e-15 0)
(3 1.23965e-15 0)
(3 1.76924e-15 0)
(3 1.57462e-15 0)
(3 -6.79928e-16 0)
(3 -1.08076e-15 0)
(3 -1.8904e-15 0)
(3 -2.53158e-15 0)
(3 -1.27519e-15 0)
(3 1.69759e-16 0)
(3 3.41635e-16 0)
(3 3.46797e-15 0)
(3 4.25105e-15 0)
(3 3.9994e-15 0)
(3 3.82198e-15 0)
(3 2.3782e-15 0)
(3 -9.53447e-19 0)
(3 -2.49639e-17 0)
(3 -3.21294e-16 0)
(3 -3.37458e-16 0)
(3 -2.18236e-16 0)
(3 -7.41135e-17 0)
(3 -3.40019e-16 0)
(3 -9.93191e-16 0)
(3 -1.64496e-15 0)
(3 -1.72806e-15 0)
(3 -2.35549e-15 0)
(3 -3.10565e-15 0)
(3 -2.15209e-15 0)
(3 -1.45468e-15 0)
(3 -2.78316e-15 0)
(3 -2.04479e-15 0)
(3 -2.02936e-15 0)
(3 -2.21215e-15 0)
(3 -1.93756e-15 0)
(3 -2.25829e-15 0)
(3 -2.40348e-15 0)
(3 -1.86405e-15 0)
(3 -5.85611e-16 0)
(3 1.08016e-15 0)
(3 1.04642e-15 0)
(3 1.02671e-15 0)
(3 1.23195e-15 0)
(3 1.16066e-15 0)
(3 5.84643e-16 0)
(3 -2.96623e-16 0)
(3 1.17705e-16 0)
(3 5.55934e-16 0)
(3 8.30319e-16 0)
(3 6.69761e-16 0)
(3 6.86826e-16 0)
(3 2.20573e-15 0)
(3 3.51319e-15 0)
(3 3.76726e-15 0)
(3 3.3817e-15 0)
(3 2.32391e-15 0)
(3 1.8616e-15 0)
(3 1.99818e-15 0)
(3 1.97223e-15 0)
(3 1.83715e-15 0)
(3 1.64305e-15 0)
(3 2.75091e-16 0)
(3 -1.04385e-15 0)
(3 -2.37975e-15 0)
(3 -2.91311e-15 0)
(3 -3.11255e-15 0)
(3 -3.31504e-15 0)
(3 -3.92566e-15 0)
(3 -4.57642e-16 0)
(3 2.54917e-15 0)
(3 2.37266e-15 0)
(3 1.8573e-15 0)
(3 2.30707e-15 0)
(3 2.48859e-15 0)
(3 2.48947e-15 0)
(3 2.1841e-15 0)
(3 1.7644e-15 0)
(3 1.59285e-15 0)
(3 5.0564e-16 0)
(3 -1.52699e-16 0)
(3 -1.22655e-15 0)
(3 -1.6786e-15 0)
(3 -1.4286e-15 0)
(3 -8.25464e-16 0)
(3 -4.29867e-17 0)
(3 -2.5383e-16 0)
(3 -5.66059e-16 0)
(3 -9.40005e-16 0)
(3 -3.89849e-16 0)
(3 3.6429e-16 0)
(3 1.96129e-15 0)
(3 2.0985e-15 0)
(3 1.67508e-15 0)
(3 1.47268e-15 0)
(3 7.38569e-16 0)
(3 2.39694e-16 0)
(3 1.1674e-15 0)
(3 1.65888e-15 0)
(3 2.07374e-15 0)
(3 1.54051e-15 0)
(3 2.93336e-16 0)
(3 -1.18749e-15 0)
(3 -2.59793e-15 0)
(3 -3.17873e-15 0)
(3 -2.69714e-15 0)
(3 8.24208e-16 0)
(3 1.89492e-15 0)
(3 2.31228e-15 0)
(3 2.66136e-15 0)
(3 1.88209e-15 0)
(3 2.20078e-15 0)
(3 2.26326e-15 0)
(3 -4.06233e-17 0)
(3 -2.36939e-17 0)
(3 -3.92793e-17 0)
(3 6.15852e-17 0)
(3 2.70701e-16 0)
(3 5.17525e-16 0)
(3 5.0078e-16 0)
(3 2.099e-16 0)
(3 -5.40497e-16 0)
(3 -9.4557e-16 0)
(3 -1.82843e-15 0)
(3 -2.35177e-15 0)
(3 -2.12943e-15 0)
(3 -1.12347e-15 0)
(3 -2.01598e-15 0)
(3 -1.78476e-15 0)
(3 -1.91677e-15 0)
(3 -1.92669e-15 0)
(3 -2.13368e-15 0)
(3 -2.96053e-15 0)
(3 -2.10522e-15 0)
(3 -1.13016e-15 0)
(3 9.92537e-16 0)
(3 2.13439e-15 0)
(3 2.28965e-15 0)
(3 2.07313e-15 0)
(3 1.2859e-15 0)
(3 9.62602e-16 0)
(3 1.11907e-15 0)
(3 1.55454e-15 0)
(3 1.0392e-15 0)
(3 4.05492e-16 0)
(3 -2.85205e-17 0)
(3 -1.60282e-19 0)
(3 2.22678e-15 0)
(3 3.75972e-15 0)
(3 4.88934e-15 0)
(3 5.11084e-15 0)
(3 4.53962e-15 0)
(3 3.50922e-15 0)
(3 2.54145e-15 0)
(3 2.13487e-15 0)
(3 2.4627e-15 0)
(3 2.44968e-15 0)
(3 2.04436e-15 0)
(3 1.57995e-15 0)
(3 -9.66829e-18 0)
(3 -6.1606e-16 0)
(3 -1.22273e-15 0)
(3 -1.0137e-15 0)
(3 -2.08156e-15 0)
(3 -4.0339e-15 0)
(3 -1.76427e-15 0)
(3 7.87495e-16 0)
(3 1.26485e-15 0)
(3 9.95243e-16 0)
(3 1.47637e-15 0)
(3 1.28622e-15 0)
(3 1.52335e-15 0)
(3 1.10362e-15 0)
(3 1.16923e-15 0)
(3 1.44091e-15 0)
(3 1.41474e-15 0)
(3 4.48442e-16 0)
(3 -8.84632e-16 0)
(3 -2.90489e-15 0)
(3 -2.93046e-15 0)
(3 -2.39965e-15 0)
(3 -1.35913e-15 0)
(3 -5.10495e-17 0)
(3 2.48397e-16 0)
(3 7.45396e-16 0)
(3 2.01613e-16 0)
(3 1.91652e-16 0)
(3 4.00922e-16 0)
(3 6.9676e-16 0)
(3 4.28573e-16 0)
(3 -3.093e-16 0)
(3 -1.13904e-15 0)
(3 -1.73688e-15 0)
(3 -1.74567e-15 0)
(3 -6.15142e-18 0)
(3 3.626e-16 0)
(3 -9.30018e-16 0)
(3 -1.6005e-15 0)
(3 -1.99548e-15 0)
(3 -2.86783e-15 0)
(3 -4.07486e-15 0)
(3 -2.79866e-15 0)
(3 1.41222e-15 0)
(3 1.9472e-15 0)
(3 1.78218e-15 0)
(3 1.11542e-15 0)
(3 3.88919e-16 0)
(3 2.37608e-16 0)
(3 -1.00203e-15 0)
(3 -1.92752e-17 0)
(3 -3.19205e-16 0)
(3 -5.54781e-17 0)
(3 -1.04397e-16 0)
(3 6.72197e-17 0)
(3 9.26443e-17 0)
(3 4.13827e-17 0)
(3 6.58173e-17 0)
(3 -4.38297e-16 0)
(3 -1.02117e-15 0)
(3 -1.5003e-15 0)
(3 -2.09773e-15 0)
(3 -3.01088e-15 0)
(3 -2.79008e-15 0)
(3 -3.59746e-16 0)
(3 -8.97568e-16 0)
(3 -2.48054e-15 0)
(3 -2.30992e-15 0)
(3 -2.13282e-15 0)
(3 -2.28409e-15 0)
(3 -1.62144e-15 0)
(3 2.86472e-16 0)
(3 1.29389e-15 0)
(3 2.41873e-15 0)
(3 2.3405e-15 0)
(3 8.40067e-16 0)
(3 8.72938e-16 0)
(3 1.75317e-15 0)
(3 2.23354e-15 0)
(3 2.78186e-15 0)
(3 2.45049e-15 0)
(3 1.18454e-15 0)
(3 7.58366e-16 0)
(3 1.01384e-15 0)
(3 2.17412e-15 0)
(3 3.26412e-15 0)
(3 3.76809e-15 0)
(3 3.77115e-15 0)
(3 3.23734e-15 0)
(3 2.1821e-15 0)
(3 1.68363e-15 0)
(3 2.43863e-15 0)
(3 3.02487e-15 0)
(3 3.21013e-15 0)
(3 2.03567e-15 0)
(3 4.22012e-16 0)
(3 -2.18484e-16 0)
(3 1.86835e-16 0)
(3 5.9799e-16 0)
(3 2.89615e-16 0)
(3 -1.04075e-15 0)
(3 -1.64899e-15 0)
(3 -1.48735e-15 0)
(3 -2.73406e-16 0)
(3 9.8556e-17 0)
(3 4.95805e-16 0)
(3 2.78395e-16 0)
(3 3.6548e-16 0)
(3 5.25108e-16 0)
(3 8.72558e-16 0)
(3 1.15187e-15 0)
(3 1.14322e-15 0)
(3 1.24922e-15 0)
(3 -1.10771e-16 0)
(3 -1.04755e-15 0)
(3 -1.53613e-15 0)
(3 -2.00522e-15 0)
(3 -2.13748e-15 0)
(3 -2.27464e-15 0)
(3 -1.82769e-15 0)
(3 -1.47083e-15 0)
(3 -9.61476e-16 0)
(3 -7.94777e-16 0)
(3 8.40868e-16 0)
(3 2.53444e-15 0)
(3 2.28282e-15 0)
(3 7.82178e-16 0)
(3 -1.4795e-16 0)
(3 -2.30809e-15 0)
(3 -2.63025e-15 0)
(3 -1.15083e-15 0)
(3 -4.89189e-17 0)
(3 9.96563e-16 0)
(3 1.26475e-15 0)
(3 3.00747e-16 0)
(3 -1.04049e-15 0)
(3 -1.44956e-15 0)
(3 -1.7795e-15 0)
(3 1.63908e-16 0)
(3 2.88205e-15 0)
(3 3.52747e-15 0)
(3 2.84704e-15 0)
(3 1.17468e-15 0)
(3 -1.22524e-15 0)
(3 -2.34501e-15 0)
(3 -2.14096e-15 0)
(3 1.08816e-18 0)
(3 -2.63291e-16 0)
(3 -1.18704e-16 0)
(3 -7.01073e-17 0)
(3 -1.88973e-17 0)
(3 1.4487e-16 0)
(3 1.1404e-17 0)
(3 2.79979e-16 0)
(3 -5.97388e-18 0)
(3 -2.00641e-15 0)
(3 -2.64068e-15 0)
(3 -3.29349e-15 0)
(3 -3.24373e-15 0)
(3 -2.66437e-15 0)
(3 -8.46949e-16 0)
(3 7.17211e-18 0)
(3 -7.59794e-16 0)
(3 -1.69533e-15 0)
(3 -2.28427e-15 0)
(3 -2.50106e-15 0)
(3 -2.50718e-15 0)
(3 -1.35062e-16 0)
(3 9.80541e-16 0)
(3 1.37405e-15 0)
(3 2.31243e-15 0)
(3 2.57247e-15 0)
(3 2.97308e-15 0)
(3 3.36269e-15 0)
(3 2.13946e-15 0)
(3 1.51783e-15 0)
(3 1.84751e-15 0)
(3 2.43915e-15 0)
(3 2.81895e-15 0)
(3 2.33259e-15 0)
(3 2.4066e-15 0)
(3 2.66799e-15 0)
(3 2.90347e-15 0)
(3 2.19069e-15 0)
(3 1.25609e-15 0)
(3 1.20939e-15 0)
(3 1.1153e-15 0)
(3 1.33338e-15 0)
(3 2.25922e-15 0)
(3 2.51024e-15 0)
(3 1.28622e-15 0)
(3 7.95485e-16 0)
(3 4.50847e-16 0)
(3 -4.1348e-16 0)
(3 -8.39373e-16 0)
(3 -1.1579e-15 0)
(3 -8.09591e-16 0)
(3 -7.31577e-16 0)
(3 -1.04385e-15 0)
(3 -1.0794e-15 0)
(3 -1.15346e-15 0)
(3 -2.01796e-16 0)
(3 -1.09445e-15 0)
(3 -1.34109e-15 0)
(3 1.92096e-16 0)
(3 1.1238e-15 0)
(3 6.52767e-16 0)
(3 -6.23483e-16 0)
(3 -4.23084e-16 0)
(3 -4.84483e-16 0)
(3 -1.04439e-16 0)
(3 9.91875e-16 0)
(3 6.78783e-16 0)
(3 -2.85749e-16 0)
(3 -1.95762e-15 0)
(3 -1.77781e-15 0)
(3 -9.83047e-16 0)
(3 2.46966e-16 0)
(3 4.02711e-16 0)
(3 9.76517e-16 0)
(3 2.09202e-15 0)
(3 1.45488e-15 0)
(3 8.63526e-16 0)
(3 4.51609e-16 0)
(3 1.15674e-16 0)
(3 -2.41541e-16 0)
(3 -5.09619e-17 0)
(3 -1.96289e-16 0)
(3 -5.894e-16 0)
(3 4.61839e-16 0)
(3 -7.35622e-16 0)
(3 -1.36392e-15 0)
(3 -6.15789e-16 0)
(3 1.66094e-15 0)
(3 3.18401e-15 0)
(3 3.56446e-15 0)
(3 3.61593e-15 0)
(3 1.39116e-15 0)
(3 6.92519e-16 0)
(3 -1.90244e-15 0)
(3 -2.84513e-15 0)
(3 -2.93667e-15 0)
(3 1.56207e-17 0)
(3 8.43655e-17 0)
(3 3.08622e-16 0)
(3 8.41251e-16 0)
(3 9.16025e-16 0)
(3 8.0169e-16 0)
(3 6.80868e-16 0)
(3 1.10135e-15 0)
(3 1.76856e-16 0)
(3 -8.29501e-16 0)
(3 -2.00494e-15 0)
(3 -1.97665e-15 0)
(3 -1.51772e-15 0)
(3 -1.41134e-15 0)
(3 -1.41856e-15 0)
(3 -1.31394e-16 0)
(3 4.20504e-16 0)
(3 -1.06211e-16 0)
(3 -1.22313e-15 0)
(3 -1.51184e-15 0)
(3 -2.03203e-15 0)
(3 -1.82774e-16 0)
(3 7.52153e-16 0)
(3 1.23153e-15 0)
(3 2.60453e-15 0)
(3 4.16827e-15 0)
(3 4.58632e-15 0)
(3 2.18588e-15 0)
(3 1.21185e-15 0)
(3 1.40691e-15 0)
(3 2.1856e-15 0)
(3 2.84708e-15 0)
(3 3.63582e-15 0)
(3 4.04223e-15 0)
(3 4.57232e-15 0)
(3 4.76872e-15 0)
(3 3.8964e-15 0)
(3 3.27565e-15 0)
(3 2.29046e-15 0)
(3 2.0444e-15 0)
(3 1.71378e-15 0)
(3 6.12633e-16 0)
(3 9.2326e-16 0)
(3 8.05518e-16 0)
(3 3.54375e-16 0)
(3 7.61918e-16 0)
(3 6.82365e-16 0)
(3 -1.94689e-16 0)
(3 -1.07808e-15 0)
(3 -1.05645e-15 0)
(3 -3.06161e-16 0)
(3 1.42535e-16 0)
(3 -2.62262e-16 0)
(3 -1.34598e-15 0)
(3 -1.8012e-15 0)
(3 -1.51326e-15 0)
(3 -8.59267e-16 0)
(3 -4.70262e-16 0)
(3 -2.34603e-16 0)
(3 -8.20668e-16 0)
(3 -3.72774e-16 0)
(3 7.83774e-17 0)
(3 3.34809e-17 0)
(3 1.1741e-15 0)
(3 2.04252e-15 0)
(3 2.05887e-15 0)
(3 9.9335e-16 0)
(3 6.61881e-16 0)
(3 5.89367e-16 0)
(3 4.53007e-16 0)
(3 7.58243e-16 0)
(3 6.98654e-16 0)
(3 8.63188e-16 0)
(3 1.03814e-15 0)
(3 2.52636e-16 0)
(3 6.36933e-16 0)
(3 1.57352e-15 0)
(3 1.02783e-15 0)
(3 1.05625e-15 0)
(3 6.60996e-16 0)
(3 -2.67276e-16 0)
(3 -9.36066e-16 0)
(3 -1.76609e-15 0)
(3 -2.13519e-15 0)
(3 -8.99862e-17 0)
(3 1.06163e-15 0)
(3 1.84582e-15 0)
(3 4.22467e-15 0)
(3 4.54222e-15 0)
(3 3.88672e-15 0)
(3 2.26568e-15 0)
(3 1.16019e-15 0)
(3 -1.34408e-16 0)
(3 -1.86696e-15 0)
(3 -2.75502e-15 0)
(3 -2.34089e-15 0)
(3 -1.72655e-17 0)
(3 2.08067e-16 0)
(3 3.02284e-16 0)
(3 4.32709e-16 0)
(3 3.98777e-16 0)
(3 4.89044e-17 0)
(3 -6.73421e-17 0)
(3 -2.59067e-16 0)
(3 -2.40771e-16 0)
(3 9.45951e-17 0)
(3 2.17249e-16 0)
(3 -7.3307e-16 0)
(3 -6.8288e-16 0)
(3 -1.42452e-15 0)
(3 -1.99636e-15 0)
(3 -7.75402e-16 0)
(3 2.21418e-16 0)
(3 -6.0273e-16 0)
(3 -7.80065e-16 0)
(3 -2.88061e-16 0)
(3 1.26323e-16 0)
(3 2.39602e-16 0)
(3 1.48902e-15 0)
(3 1.42182e-15 0)
(3 1.35467e-15 0)
(3 1.6384e-15 0)
(3 2.33601e-15 0)
(3 2.48755e-15 0)
(3 2.54623e-15 0)
(3 2.87177e-15 0)
(3 3.85398e-15 0)
(3 4.5408e-15 0)
(3 4.00053e-15 0)
(3 4.65013e-15 0)
(3 4.54415e-15 0)
(3 4.58181e-15 0)
(3 2.80796e-15 0)
(3 1.18069e-15 0)
(3 7.20673e-16 0)
(3 9.09121e-16 0)
(3 5.94548e-16 0)
(3 -2.21295e-16 0)
(3 -4.79378e-16 0)
(3 -6.61693e-16 0)
(3 4.09123e-16 0)
(3 9.87371e-16 0)
(3 9.75822e-16 0)
(3 1.35094e-15 0)
(3 1.19306e-15 0)
(3 9.74524e-16 0)
(3 5.31776e-16 0)
(3 8.08417e-17 0)
(3 6.65252e-16 0)
(3 1.77876e-16 0)
(3 -8.56371e-16 0)
(3 -1.28891e-15 0)
(3 -1.08781e-15 0)
(3 -7.26059e-17 0)
(3 -6.24006e-16 0)
(3 -1.35235e-15 0)
(3 -6.77026e-16 0)
(3 8.65493e-17 0)
(3 1.26813e-15 0)
(3 1.86726e-15 0)
(3 1.58354e-15 0)
(3 1.0928e-15 0)
(3 1.55018e-15 0)
(3 2.51011e-15 0)
(3 3.9135e-15 0)
(3 4.21528e-15 0)
(3 4.21782e-15 0)
(3 3.45999e-15 0)
(3 1.61977e-15 0)
(3 -4.04943e-16 0)
(3 -1.22825e-15 0)
(3 -5.00639e-17 0)
(3 1.35411e-15 0)
(3 1.33373e-15 0)
(3 9.7411e-16 0)
(3 8.28535e-16 0)
(3 6.45081e-16 0)
(3 2.56455e-16 0)
(3 4.86493e-16 0)
(3 1.26365e-15 0)
(3 2.17838e-15 0)
(3 3.61002e-15 0)
(3 3.30609e-15 0)
(3 2.74122e-15 0)
(3 2.67401e-15 0)
(3 2.55681e-15 0)
(3 1.0162e-15 0)
(3 3.38218e-16 0)
(3 -5.79931e-16 0)
(3 -2.21024e-15 0)
(3 -2.70183e-15 0)
(3 -1.8227e-15 0)
(3 -7.14929e-17 0)
(3 2.35821e-17 0)
(3 -1.89009e-16 0)
(3 -3.43702e-16 0)
(3 -3.43002e-16 0)
(3 -2.69792e-16 0)
(3 -1.55723e-16 0)
(3 -2.7885e-16 0)
(3 -1.76622e-16 0)
(3 -1.97829e-16 0)
(3 1.61427e-16 0)
(3 -7.67361e-16 0)
(3 -1.63429e-15 0)
(3 -1.72745e-15 0)
(3 -1.73563e-15 0)
(3 -1.93716e-15 0)
(3 -2.18321e-15 0)
(3 -1.23564e-15 0)
(3 -9.81001e-16 0)
(3 -1.61154e-16 0)
(3 5.45908e-16 0)
(3 9.65762e-16 0)
(3 8.85172e-16 0)
(3 7.82636e-16 0)
(3 -1.66714e-16 0)
(3 -4.99288e-16 0)
(3 8.5774e-16 0)
(3 3.62861e-15 0)
(3 3.99605e-15 0)
(3 4.36288e-15 0)
(3 3.2396e-15 0)
(3 2.01676e-15 0)
(3 1.90981e-15 0)
(3 1.433e-15 0)
(3 7.96421e-16 0)
(3 2.03001e-15 0)
(3 2.26102e-15 0)
(3 9.92665e-16 0)
(3 4.28055e-16 0)
(3 6.42105e-16 0)
(3 1.18696e-15 0)
(3 1.33655e-15 0)
(3 8.88282e-16 0)
(3 4.39949e-16 0)
(3 7.40092e-16 0)
(3 7.86309e-16 0)
(3 1.44667e-15 0)
(3 1.68362e-15 0)
(3 1.8596e-15 0)
(3 1.21997e-15 0)
(3 2.85861e-16 0)
(3 -1.94287e-16 0)
(3 -1.44324e-16 0)
(3 6.6752e-16 0)
(3 5.49205e-16 0)
(3 6.25916e-16 0)
(3 1.75531e-16 0)
(3 -1.5815e-16 0)
(3 -9.86984e-16 0)
(3 -7.96808e-16 0)
(3 -3.77937e-16 0)
(3 8.1426e-16 0)
(3 1.5478e-15 0)
(3 1.48611e-15 0)
(3 5.7088e-16 0)
(3 5.42679e-16 0)
(3 1.66969e-15 0)
(3 3.2609e-15 0)
(3 3.16455e-15 0)
(3 3.42366e-15 0)
(3 4.005e-15 0)
(3 4.10522e-15 0)
(3 3.88641e-15 0)
(3 2.07874e-15 0)
(3 1.21864e-15 0)
(3 9.256e-16 0)
(3 7.93174e-16 0)
(3 1.11601e-15 0)
(3 1.14977e-15 0)
(3 1.3218e-15 0)
(3 1.04605e-15 0)
(3 1.16066e-15 0)
(3 1.40821e-15 0)
(3 1.58099e-15 0)
(3 1.92026e-15 0)
(3 1.52147e-15 0)
(3 5.77483e-16 0)
(3 2.68334e-16 0)
(3 -6.5234e-16 0)
(3 -1.77823e-15 0)
(3 -9.36706e-16 0)
(3 -3.81618e-17 0)
(3 6.90666e-17 0)
(3 -2.3958e-16 0)
(3 -1.87538e-15 0)
(3 -1.52048e-15 0)
(3 -2.60368e-17 0)
(3 -1.32896e-16 0)
(3 -3.38025e-17 0)
(3 -6.63247e-17 0)
(3 -3.46243e-16 0)
(3 -2.52057e-16 0)
(3 -1.31347e-16 0)
(3 -1.04496e-17 0)
(3 -9.89037e-18 0)
(3 2.38267e-16 0)
(3 2.95203e-16 0)
(3 4.83297e-16 0)
(3 5.88821e-16 0)
(3 -5.30781e-16 0)
(3 -1.17319e-15 0)
(3 -1.91641e-15 0)
(3 -1.99151e-15 0)
(3 -1.49267e-15 0)
(3 -1.46805e-15 0)
(3 -1.58336e-15 0)
(3 -3.60702e-16 0)
(3 1.61049e-15 0)
(3 1.59922e-15 0)
(3 1.57019e-15 0)
(3 5.31069e-16 0)
(3 2.19513e-16 0)
(3 7.63159e-16 0)
(3 1.97299e-15 0)
(3 2.77744e-15 0)
(3 2.87702e-15 0)
(3 2.85832e-15 0)
(3 2.54586e-15 0)
(3 1.15598e-15 0)
(3 5.3991e-16 0)
(3 6.06423e-16 0)
(3 9.76404e-16 0)
(3 1.04799e-15 0)
(3 1.60524e-15 0)
(3 2.20302e-15 0)
(3 2.25211e-15 0)
(3 2.40433e-15 0)
(3 1.61402e-15 0)
(3 1.10793e-15 0)
(3 8.2401e-16 0)
(3 6.47895e-16 0)
(3 6.51091e-16 0)
(3 8.35019e-16 0)
(3 1.0886e-15 0)
(3 1.51514e-15 0)
(3 -1.21518e-16 0)
(3 -8.00079e-16 0)
(3 -1.08862e-15 0)
(3 -8.66925e-16 0)
(3 -8.14385e-16 0)
(3 -2.14052e-16 0)
(3 9.77072e-16 0)
(3 9.33298e-16 0)
(3 8.29738e-16 0)
(3 7.40319e-16 0)
(3 1.49096e-15 0)
(3 1.24403e-15 0)
(3 1.50758e-15 0)
(3 1.3939e-15 0)
(3 7.4911e-16 0)
(3 -2.13895e-16 0)
(3 1.6484e-16 0)
(3 4.82298e-16 0)
(3 1.3029e-15 0)
(3 1.60348e-15 0)
(3 1.9706e-15 0)
(3 2.15107e-15 0)
(3 2.25147e-15 0)
(3 2.48743e-15 0)
(3 2.97143e-15 0)
(3 3.23665e-15 0)
(3 5.4796e-16 0)
(3 -4.51938e-16 0)
(3 3.42944e-16 0)
(3 8.92789e-16 0)
(3 5.76525e-16 0)
(3 6.19566e-16 0)
(3 5.8115e-16 0)
(3 4.91573e-16 0)
(3 9.1217e-16 0)
(3 9.85199e-16 0)
(3 7.9152e-16 0)
(3 -2.95983e-16 0)
(3 -9.06169e-16 0)
(3 -1.43376e-15 0)
(3 -1.56595e-15 0)
(3 -1.91986e-15 0)
(3 -5.08717e-16 0)
(3 5.73388e-16 0)
(3 8.45374e-16 0)
(3 7.21458e-16 0)
(3 4.07651e-16 0)
(3 1.32094e-16 0)
(3 1.35205e-16 0)
(3 1.84183e-16 0)
(3 6.3921e-17 0)
(3 -3.35908e-16 0)
(3 -1.13809e-16 0)
(3 2.51019e-17 0)
(3 6.97211e-16 0)
(3 1.32916e-15 0)
(3 1.32683e-15 0)
(3 1.27637e-15 0)
(3 1.45343e-15 0)
(3 1.4752e-15 0)
(3 5.72186e-16 0)
(3 -1.52401e-15 0)
(3 -2.2302e-15 0)
(3 -1.23978e-15 0)
(3 -1.30198e-15 0)
(3 -1.32571e-15 0)
(3 -1.06644e-15 0)
(3 2.75199e-16 0)
(3 1.40491e-15 0)
(3 1.84707e-15 0)
(3 2.61446e-15 0)
(3 2.68493e-15 0)
(3 1.51639e-15 0)
(3 4.06432e-16 0)
(3 -1.72868e-16 0)
(3 9.46802e-16 0)
(3 6.02484e-16 0)
(3 1.47266e-16 0)
(3 4.23584e-16 0)
(3 8.73925e-16 0)
(3 8.91055e-16 0)
(3 5.98326e-16 0)
(3 -1.0832e-16 0)
(3 -2.15331e-16 0)
(3 1.11286e-15 0)
(3 1.98936e-15 0)
(3 1.54748e-15 0)
(3 8.20437e-16 0)
(3 -1.34514e-16 0)
(3 -1.95082e-17 0)
(3 4.15983e-16 0)
(3 9.49124e-16 0)
(3 1.99586e-15 0)
(3 4.71029e-16 0)
(3 -2.04755e-16 0)
(3 -3.16396e-16 0)
(3 -4.48623e-16 0)
(3 -1.13916e-15 0)
(3 -1.83608e-15 0)
(3 -1.76269e-15 0)
(3 -1.47796e-15 0)
(3 -6.57459e-16 0)
(3 -1.66192e-16 0)
(3 -3.3288e-16 0)
(3 -7.09069e-16 0)
(3 -2.70042e-16 0)
(3 1.65355e-15 0)
(3 1.96358e-15 0)
(3 8.47304e-16 0)
(3 3.32137e-16 0)
(3 -1.54605e-17 0)
(3 6.75164e-16 0)
(3 9.21687e-16 0)
(3 6.50895e-16 0)
(3 -2.61115e-16 0)
(3 -1.5483e-16 0)
(3 1.97371e-16 0)
(3 3.13761e-16 0)
(3 1.25072e-15 0)
(3 1.98635e-15 0)
(3 2.80539e-15 0)
(3 2.76606e-15 0)
(3 1.42519e-15 0)
(3 9.8018e-16 0)
(3 1.14378e-15 0)
(3 1.77034e-15 0)
(3 1.07911e-15 0)
(3 1.1527e-16 0)
(3 -8.25902e-16 0)
(3 -9.52895e-16 0)
(3 -1.33371e-16 0)
(3 1.79991e-16 0)
(3 4.34369e-16 0)
(3 -1.93918e-16 0)
(3 -8.97637e-16 0)
(3 -9.08664e-16 0)
(3 -1.11897e-15 0)
(3 -8.27392e-16 0)
(3 -8.25896e-16 0)
(3 6.70473e-16 0)
(3 1.85689e-15 0)
(3 1.93248e-15 0)
(3 1.93651e-15 0)
(3 -7.15823e-17 0)
(3 -7.91399e-18 0)
(3 3.03073e-17 0)
(3 5.06723e-16 0)
(3 2.2038e-16 0)
(3 2.94667e-16 0)
(3 7.87833e-16 0)
(3 1.47478e-15 0)
(3 1.84341e-15 0)
(3 1.3462e-15 0)
(3 8.04774e-16 0)
(3 2.12822e-16 0)
(3 -1.59905e-16 0)
(3 3.65301e-16 0)
(3 5.53077e-16 0)
(3 -1.05199e-16 0)
(3 2.27122e-16 0)
(3 3.26803e-16 0)
(3 6.33093e-16 0)
(3 6.08337e-16 0)
(3 1.00646e-16 0)
(3 3.73268e-16 0)
(3 1.37843e-15 0)
(3 2.17191e-15 0)
(3 3.89858e-15 0)
(3 1.09362e-15 0)
(3 -1.56436e-15 0)
(3 -2.58861e-15 0)
(3 -2.45053e-15 0)
(3 -1.44383e-15 0)
(3 -1.36572e-15 0)
(3 -8.94798e-16 0)
(3 -1.06066e-18 0)
(3 3.61447e-16 0)
(3 3.9966e-16 0)
(3 -3.90601e-16 0)
(3 -2.4741e-16 0)
(3 1.19911e-15 0)
(3 1.30626e-15 0)
(3 6.98029e-16 0)
(3 -4.40095e-18 0)
(3 -2.52646e-16 0)
(3 -2.61964e-16 0)
(3 -2.10576e-16 0)
(3 5.04445e-16 0)
(3 1.28961e-15 0)
(3 1.36829e-15 0)
(3 6.1003e-16 0)
(3 4.26462e-16 0)
(3 -1.36752e-16 0)
(3 -8.57412e-16 0)
(3 -7.12467e-16 0)
(3 -7.78452e-16 0)
(3 -7.06048e-16 0)
(3 2.93362e-16 0)
(3 8.55063e-16 0)
(3 1.48805e-15 0)
(3 1.09913e-15 0)
(3 1.61648e-16 0)
(3 4.50958e-17 0)
(3 3.46488e-16 0)
(3 4.2166e-16 0)
(3 5.53248e-16 0)
(3 2.19358e-15 0)
(3 2.76574e-15 0)
(3 2.13484e-15 0)
(3 8.7319e-16 0)
(3 4.01902e-16 0)
(3 -2.34842e-16 0)
(3 -3.31739e-16 0)
(3 -1.02362e-15 0)
(3 -8.50949e-16 0)
(3 4.65147e-16 0)
(3 1.68627e-15 0)
(3 1.63484e-15 0)
(3 2.55255e-15 0)
(3 2.03725e-15 0)
(3 2.14912e-15 0)
(3 1.80714e-15 0)
(3 2.34447e-16 0)
(3 -1.42452e-15 0)
(3 -1.39042e-15 0)
(3 -1.40286e-15 0)
(3 -6.77774e-16 0)
(3 4.65857e-17 0)
(3 1.02555e-15 0)
(3 1.92584e-15 0)
(3 2.00506e-15 0)
(3 1.82302e-15 0)
(3 1.07757e-15 0)
(3 5.8291e-16 0)
(3 4.9662e-16 0)
(3 6.64544e-16 0)
(3 1.32625e-15 0)
(3 1.75442e-15 0)
(3 1.80325e-15 0)
(3 -1.86632e-17 0)
(3 -2.31143e-18 0)
(3 -2.38015e-17 0)
(3 1.28865e-17 0)
(3 -1.24663e-16 0)
(3 -1.82544e-16 0)
(3 1.14752e-16 0)
(3 3.86936e-16 0)
(3 1.01082e-15 0)
(3 1.71123e-15 0)
(3 1.30307e-15 0)
(3 8.64229e-16 0)
(3 5.01545e-16 0)
(3 2.73505e-16 0)
(3 -1.37277e-18 0)
(3 3.6055e-16 0)
(3 5.43746e-16 0)
(3 7.00497e-16 0)
(3 1.03819e-15 0)
(3 5.43014e-16 0)
(3 -8.62766e-16 0)
(3 -2.50478e-16 0)
(3 4.97822e-16 0)
(3 9.89668e-16 0)
(3 1.32123e-15 0)
(3 1.11143e-16 0)
(3 -1.87959e-15 0)
(3 -1.89852e-15 0)
(3 -2.42505e-15 0)
(3 -2.74446e-15 0)
(3 -1.90237e-15 0)
(3 -6.98546e-16 0)
(3 5.69089e-16 0)
(3 1.29136e-15 0)
(3 2.30472e-15 0)
(3 2.86937e-16 0)
(3 -8.02083e-16 0)
(3 -6.25319e-16 0)
(3 -1.94068e-16 0)
(3 6.99663e-16 0)
(3 -4.3978e-16 0)
(3 -1.09719e-15 0)
(3 -1.22451e-15 0)
(3 9.21652e-17 0)
(3 2.81528e-15 0)
(3 2.76282e-15 0)
(3 2.95109e-15 0)
(3 1.74934e-15 0)
(3 1.18971e-15 0)
(3 8.76565e-16 0)
(3 1.02868e-15 0)
(3 1.16608e-15 0)
(3 8.4217e-16 0)
(3 6.72847e-16 0)
(3 1.52641e-15 0)
(3 2.41032e-15 0)
(3 2.68251e-15 0)
(3 2.83071e-15 0)
(3 1.41899e-15 0)
(3 -8.57758e-16 0)
(3 -1.07e-15 0)
(3 -4.28234e-16 0)
(3 6.45921e-16 0)
(3 1.71653e-15 0)
(3 2.13386e-15 0)
(3 8.55858e-16 0)
(3 1.92863e-16 0)
(3 1.5097e-16 0)
(3 -4.53475e-16 0)
(3 -1.08122e-15 0)
(3 -1.20621e-15 0)
(3 -1.07586e-15 0)
(3 -5.84398e-16 0)
(3 6.88133e-16 0)
(3 2.16666e-15 0)
(3 2.54368e-15 0)
(3 2.89282e-15 0)
(3 2.02597e-15 0)
(3 1.45214e-15 0)
(3 8.44695e-16 0)
(3 8.85848e-16 0)
(3 -2.16273e-15 0)
(3 -2.96887e-15 0)
(3 -1.72977e-15 0)
(3 -2.00499e-16 0)
(3 1.6086e-15 0)
(3 2.71089e-15 0)
(3 3.58458e-15 0)
(3 3.61339e-15 0)
(3 3.43225e-15 0)
(3 2.32821e-15 0)
(3 1.72781e-15 0)
(3 5.6661e-16 0)
(3 5.34341e-16 0)
(3 6.35456e-16 0)
(3 7.42601e-17 0)
(3 -3.73569e-17 0)
(3 -1.67366e-16 0)
(3 -2.76923e-16 0)
(3 -8.87295e-16 0)
(3 -8.44671e-16 0)
(3 -6.13836e-16 0)
(3 -9.48577e-17 0)
(3 6.61498e-16 0)
(3 1.25812e-15 0)
(3 1.46534e-15 0)
(3 1.14928e-15 0)
(3 8.31217e-16 0)
(3 3.93658e-16 0)
(3 -3.44217e-16 0)
(3 -5.83162e-16 0)
(3 -4.90626e-16 0)
(3 3.96371e-17 0)
(3 4.31718e-16 0)
(3 2.01494e-16 0)
(3 4.42571e-16 0)
(3 1.27797e-15 0)
(3 7.16275e-16 0)
(3 -5.0168e-16 0)
(3 -9.32388e-16 0)
(3 -8.81426e-16 0)
(3 -8.97054e-16 0)
(3 -1.4077e-15 0)
(3 -1.18062e-15 0)
(3 -1.53588e-15 0)
(3 -1.94504e-15 0)
(3 -1.80049e-15 0)
(3 2.33425e-16 0)
(3 2.04273e-15 0)
(3 1.99471e-15 0)
(3 1.2508e-15 0)
(3 -7.95466e-16 0)
(3 -1.9913e-15 0)
(3 -1.79848e-15 0)
(3 -9.97897e-16 0)
(3 -1.39398e-15 0)
(3 -2.63902e-15 0)
(3 -1.635e-15 0)
(3 4.32669e-16 0)
(3 1.55408e-15 0)
(3 1.88818e-15 0)
(3 2.41649e-15 0)
(3 2.21841e-15 0)
(3 2.82885e-16 0)
(3 -1.0957e-15 0)
(3 7.99854e-16 0)
(3 2.42005e-15 0)
(3 2.27379e-15 0)
(3 2.62353e-15 0)
(3 2.5282e-15 0)
(3 2.49026e-15 0)
(3 2.61024e-15 0)
(3 2.48192e-15 0)
(3 1.31941e-15 0)
(3 1.12996e-15 0)
(3 5.78484e-16 0)
(3 -6.33019e-16 0)
(3 -4.36006e-16 0)
(3 -5.6403e-17 0)
(3 3.07813e-16 0)
(3 -7.00076e-16 0)
(3 -1.2053e-15 0)
(3 -1.21742e-15 0)
(3 -1.22701e-15 0)
(3 -5.27392e-16 0)
(3 -6.18483e-16 0)
(3 -1.24539e-15 0)
(3 -1.9308e-15 0)
(3 -1.70931e-15 0)
(3 -1.20289e-15 0)
(3 -5.0055e-16 0)
(3 1.23782e-15 0)
(3 1.47259e-15 0)
(3 1.50512e-15 0)
(3 2.13754e-15 0)
(3 3.17073e-15 0)
(3 2.03003e-15 0)
(3 -1.95507e-15 0)
(3 -3.97137e-15 0)
(3 -2.56037e-15 0)
(3 -1.10986e-15 0)
(3 -1.50864e-16 0)
(3 1.37724e-15 0)
(3 2.57399e-15 0)
(3 2.4179e-15 0)
(3 2.12809e-15 0)
(3 2.18565e-15 0)
(3 2.09984e-15 0)
(3 1.73502e-15 0)
(3 1.15917e-15 0)
(3 -9.01711e-16 0)
(3 -2.89925e-15 0)
(3 8.18904e-18 0)
(3 6.58774e-17 0)
(3 4.27444e-17 0)
(3 2.22006e-17 0)
(3 -3.24458e-16 0)
(3 -4.17372e-16 0)
(3 -5.9318e-17 0)
(3 6.79711e-17 0)
(3 -9.31538e-17 0)
(3 -2.46685e-16 0)
(3 7.22325e-16 0)
(3 1.92718e-15 0)
(3 2.29663e-15 0)
(3 1.68425e-15 0)
(3 1.35722e-15 0)
(3 1.06594e-15 0)
(3 7.97587e-16 0)
(3 8.65451e-16 0)
(3 1.02689e-15 0)
(3 1.78816e-15 0)
(3 2.56491e-15 0)
(3 3.15434e-15 0)
(3 7.56604e-16 0)
(3 -1.93177e-15 0)
(3 -2.26094e-15 0)
(3 -1.33661e-15 0)
(3 -1.81711e-15 0)
(3 -2.38506e-15 0)
(3 -1.90209e-15 0)
(3 -1.77747e-15 0)
(3 -2.97437e-16 0)
(3 5.00392e-16 0)
(3 8.06963e-16 0)
(3 7.24326e-16 0)
(3 -5.29529e-16 0)
(3 -1.5895e-15 0)
(3 -1.28264e-15 0)
(3 -8.85557e-16 0)
(3 -8.17807e-16 0)
(3 -2.66622e-15 0)
(3 -2.9235e-15 0)
(3 -1.36178e-15 0)
(3 2.23618e-15 0)
(3 2.49181e-15 0)
(3 1.51612e-15 0)
(3 1.42718e-15 0)
(3 8.95809e-16 0)
(3 -4.31397e-16 0)
(3 -2.86457e-16 0)
(3 2.93151e-16 0)
(3 7.41432e-16 0)
(3 2.48536e-15 0)
(3 3.34849e-15 0)
(3 3.33688e-15 0)
(3 2.8687e-15 0)
(3 1.39181e-15 0)
(3 1.07799e-15 0)
(3 6.09251e-16 0)
(3 5.26835e-16 0)
(3 3.98566e-16 0)
(3 1.60942e-16 0)
(3 1.29858e-15 0)
(3 1.63976e-15 0)
(3 1.66278e-15 0)
(3 4.41593e-16 0)
(3 -1.04049e-15 0)
(3 -1.42214e-15 0)
(3 -1.44174e-15 0)
(3 -8.9158e-16 0)
(3 -1.24215e-15 0)
(3 -1.78157e-15 0)
(3 -2.6231e-15 0)
(3 -2.73739e-15 0)
(3 -2.80161e-15 0)
(3 -1.51502e-15 0)
(3 -1.32531e-16 0)
(3 2.41026e-16 0)
(3 2.76554e-15 0)
(3 3.7332e-15 0)
(3 4.1447e-15 0)
(3 1.67947e-15 0)
(3 3.06147e-16 0)
(3 -1.86808e-15 0)
(3 -2.27785e-15 0)
(3 -4.68786e-16 0)
(3 -7.65813e-17 0)
(3 1.07225e-15 0)
(3 1.43046e-15 0)
(3 2.40313e-15 0)
(3 2.48829e-15 0)
(3 2.18005e-15 0)
(3 1.32629e-15 0)
(3 1.09912e-15 0)
(3 1.4558e-16 0)
(3 -1.52444e-15 0)
(3 -2.83975e-15 0)
(3 7.22726e-17 0)
(3 2.45129e-16 0)
(3 -1.5999e-17 0)
(3 7.20159e-17 0)
(3 -6.0032e-18 0)
(3 -2.12781e-17 0)
(3 5.9317e-17 0)
(3 1.80901e-17 0)
(3 -2.35004e-16 0)
(3 -2.47313e-16 0)
(3 7.53584e-16 0)
(3 1.05923e-15 0)
(3 2.03094e-15 0)
(3 2.31555e-15 0)
(3 2.18432e-15 0)
(3 1.67181e-15 0)
(3 6.40904e-16 0)
(3 5.83095e-16 0)
(3 1.95234e-15 0)
(3 2.34608e-15 0)
(3 2.55024e-15 0)
(3 1.85056e-15 0)
(3 -1.35209e-15 0)
(3 -2.57448e-15 0)
(3 -2.95389e-15 0)
(3 -1.71504e-15 0)
(3 -1.02417e-15 0)
(3 -5.45542e-16 0)
(3 -1.00036e-16 0)
(3 4.99032e-16 0)
(3 -8.28033e-16 0)
(3 -1.219e-15 0)
(3 -1.71902e-15 0)
(3 -1.86773e-15 0)
(3 -1.21531e-15 0)
(3 -4.54528e-16 0)
(3 2.20436e-16 0)
(3 1.73408e-16 0)
(3 7.60909e-17 0)
(3 -7.61865e-16 0)
(3 -8.3181e-16 0)
(3 1.35598e-15 0)
(3 2.1359e-15 0)
(3 2.26322e-15 0)
(3 4.71623e-16 0)
(3 -1.42873e-15 0)
(3 -1.05017e-15 0)
(3 4.33806e-16 0)
(3 1.58301e-15 0)
(3 2.16047e-15 0)
(3 1.71413e-15 0)
(3 2.34925e-15 0)
(3 2.144e-15 0)
(3 2.50207e-15 0)
(3 1.42818e-15 0)
(3 -6.13711e-16 0)
(3 -1.05726e-15 0)
(3 -5.32188e-16 0)
(3 -4.29492e-16 0)
(3 -1.0714e-15 0)
(3 8.73202e-16 0)
(3 1.21329e-15 0)
(3 1.74906e-15 0)
(3 1.98437e-15 0)
(3 9.55155e-16 0)
(3 -1.38766e-15 0)
(3 -2.26909e-15 0)
(3 -2.10089e-15 0)
(3 -1.84166e-15 0)
(3 -1.7166e-15 0)
(3 -2.21245e-15 0)
(3 -2.1303e-15 0)
(3 -1.34303e-15 0)
(3 1.82292e-18 0)
(3 4.44149e-16 0)
(3 1.34666e-15 0)
(3 2.97658e-15 0)
(3 3.12649e-15 0)
(3 2.78204e-15 0)
(3 1.91584e-15 0)
(3 1.14128e-15 0)
(3 9.14843e-16 0)
(3 -2.00866e-16 0)
(3 -6.30586e-16 0)
(3 8.60269e-18 0)
(3 -2.80295e-16 0)
(3 -7.86871e-16 0)
(3 -1.17282e-15 0)
(3 6.80901e-16 0)
(3 1.25729e-15 0)
(3 1.81636e-15 0)
(3 2.35513e-15 0)
(3 2.29127e-15 0)
(3 1.8348e-15 0)
(3 9.04712e-16 0)
(3 3.0089e-16 0)
(3 -1.58546e-17 0)
(3 -6.48504e-18 0)
(3 -1.1664e-16 0)
(3 -2.78719e-16 0)
(3 -8.24525e-17 0)
(3 3.8104e-16 0)
(3 4.71381e-16 0)
(3 5.44007e-16 0)
(3 7.12243e-16 0)
(3 1.2417e-15 0)
(3 8.41471e-16 0)
(3 -2.39762e-16 0)
(3 1.03281e-15 0)
(3 1.97312e-15 0)
(3 1.6484e-15 0)
(3 8.44662e-16 0)
(3 7.42561e-16 0)
(3 1.04522e-15 0)
(3 5.37175e-16 0)
(3 8.37223e-17 0)
(3 -3.92666e-16 0)
(3 -1.40334e-15 0)
(3 -2.65486e-15 0)
(3 -3.6272e-15 0)
(3 -2.37932e-15 0)
(3 -1.03648e-15 0)
(3 -8.52736e-16 0)
(3 7.53969e-16 0)
(3 2.48549e-15 0)
(3 2.53595e-15 0)
(3 1.03616e-15 0)
(3 -5.15705e-16 0)
(3 -1.40761e-15 0)
(3 -1.40263e-15 0)
(3 -1.03852e-15 0)
(3 -2.6109e-17 0)
(3 6.2475e-16 0)
(3 9.38557e-16 0)
(3 1.27514e-15 0)
(3 2.51734e-15 0)
(3 2.55826e-15 0)
(3 2.30867e-15 0)
(3 2.1981e-15 0)
(3 5.74782e-16 0)
(3 -8.00799e-16 0)
(3 -6.07913e-16 0)
(3 -2.68491e-16 0)
(3 1.07082e-15 0)
(3 2.53799e-15 0)
(3 3.30626e-15 0)
(3 3.42629e-15 0)
(3 2.60412e-15 0)
(3 1.41006e-15 0)
(3 -1.37896e-15 0)
(3 -2.2408e-15 0)
(3 -1.97134e-15 0)
(3 -1.3243e-15 0)
(3 2.45534e-16 0)
(3 1.06253e-15 0)
(3 1.40753e-15 0)
(3 1.06332e-15 0)
(3 1.35687e-16 0)
(3 -4.94776e-17 0)
(3 -2.92602e-16 0)
(3 -3.62833e-16 0)
(3 -2.4607e-15 0)