/*--------------------------------*- C++ -*----------------------------------*\
  =========                 |
  \\      /  F ield         | OpenFOAM: The Open Source CFD Toolbox
   \\    /   O peration     | Website:  https://openfoam.org
    \\  /    A nd           | Version:  7
     \\/     M anipulation  |
\*---------------------------------------------------------------------------*/
FoamFile
{
    version     2.0;
    format      ascii;
    class       volScalarField;
    location    "1.7";
    object      p;
}
// * * * * * * * * * * * * * * * * * * * * * * * * * * * * * * * * * * * * * //

dimensions      [1 -1 -2 0 0 0 0];

internalField   nonuniform List<scalar> 
18432
(
1
1
1
1
1
1
1
1
1
1
1
1
1
1
1
1
1
1
1
1
1
1
1
1
1
1
1
1
1
1
1
1
1
1
1
1
1
1
1
1
1
1
1
1
1
1
1
1
1
1
1
1
1
1
1
1
1
1
1
1
1
1
1
1
1
1
1
1
1
1
1
1
1
1
1
1
1
1
1
1
1
1
1
1
1
1
1
1
1
1
1
1
1
1
1
1
1
1
1
1
1
1
1
1
1
1
1
1
1
1
1
1
1
1
1
1
1
1
1
1
1
1
1
1
1
1
1
1
1
1
1
1
1
1
1
1
1
1
1
1
1
1
1
1
1
1
1
1
1
1
1
1
1
1
1
1
1
1
1
1
1
1
1
1
1
1
1
1
1
1
1
1
1
1
1
1
1
1
1
1
1
1
1
1
1
1
1
1
1
1
1
1
1
1
1
1
1
1
1
1
1
1
1
1
1
1
1
1
1
1
1
1
1
1
1
1
1
1
1
1
1
1
1
1
1
1
1
1
1
1
1
1
1
1
1
1
1
1
1
1
1
1
1
1
1
1
1
1
1
1
1
1
1
1
1
1
1
1
1
1
1
1
1
1
1
1
1
1
1
1
1
1
1
1
1
1
1
1
1
1
1
1
1
1
1
1
1
1
1
1
1
1
1
1
1
1
1
1
1
1
1
1
1
1
1
1
1
1
1
1
1
1
1
1
1
1
1
1
1
1
1
1
1
1
1
1
1
1
1
1
1
1
1
1
1
1
1
1
1
1
1
1
1
1
1
1
1
1
1
1
1
1
1
1
1
1
1
1
1
1
1
1
1
1
1
1
1
1
1
1
1
1
1
1
1
1
1
1
1
1
1
1
1
1
1
1
1
1
1
1
1
1
1
1
1
1
1
1
1
1
1
1
1
1
1
1
1
1
1
1
1
1
1
1
1
1
1
1
1
1
1
1
1
1
1
1
1
1
1
1
1
1
1
1
1
1
1
1
1
1
1
1
1
1
1
1
1
1
1
1
1
1
1
1
1
1
1
1
1
1
1
1
1
1
1
1
1
1
1
1
1
1
1
1
1
1
1
1
1
1
1
1
1
1
1
1
1
1
1
1
1
1
1
1
1
1
1
1
1
1
1
1
1
1
1
1
1
1
1
1
1
1
1
1
1
1
1
1
1
1
1
1
1
1
1
1
1
1
1
1
1
1
1
1
1
1
1
1
1
1
1
1
1
1
1
1
1
1
1
1
1
1
1
1
1
1
1
1
1
1
1
1
1
1
1
1
1
1
1
1
1
1
1
1
1
1
1
1
1
1
1
1
1
1
1
1
1
1
1
1
1
1
1
1
1
1
1
1
1
1
1
1
1
1
1
1
1
1
1
1
1
1
1
1
1
1
1
1
1
1
1
1
1
1
1
1
1
1
1
1
1
1
1
1
1
1
1
1
1
1
1
1
1
1
1
1
1
1
1
1
1
1
1
1
1
1
1
1
1
1
1
1
1
1
1
1
1
1
1
1
1
1
1
1
1
1
1
1
1
1
1
1
1
1
1
1
1
1
1
1
1
1
1
1
1
1
1
1
1
1
1
1
1
1
1
1
1
1
1
1
1
1
1
1
1
1
1
1
1
1
1
1
1
1
1
1
1
1
1
1
1
1
1
1
1
1
1
1
1
1
1
1
1
1
1
1
1
1
1
1
1
1
1
1
1
1
1
1
1
1
1
1
1
1
1
1
1
1
1
1
1
1
1
1
1
1
1
1
1
1
1
1
1
1
1
1
1
1
1
1
1
1
1
1
1
1
1
1
1
1
1
1
1
1
1
1
1
1
1
1
1
1
1
1
1
1
1
1
1
1
1
1
1
1
1
1
1
1
1
1
1
1
1
1
1
1
1
1
1
1
1
1
1
1
1
1
1
1
1
1
1
1
1
1
1
1
1
1
1
1
1
1
1
1
1
1
1
1
1
1
1
1
1
1
1
1
1
1
1
1
1
1
1
1
1
1
1
1
1
1
1
1
1
1
1
1
1
1
1
1
1
1
1
1
1
1
1
1
1
1
1
1
1
1
1
1
1
1
1
1
1
1
1
1
1
1
1
1
1
1
1
1
1
1
1
1
1
1
1
1
1
1
1
1
1
1
1
1
1
1
1
1
1
1
1
1
1
1
1
1
1
1
1
1
1
1
1
1
1
1
1
1
1
1
1
1
1
1
1
1
1
1
1
1
1
1
1
1
1
1
1
1
1
1
1
1
1
1
1
1
1
1
1
1
1
1
1
1
1
1
1
1
1
1
1
1
1
1
1
1
1
1
1
1
1
1
1
1
1
1
1
1
1
1
1
1
1
1
1
1
1
1
1
1
1
1
1
1
1
1
1
1
1
1
1
1
1
1
1
1
1
1
1
1
1
1
1
1
1
1
1
1
1
1
1
1
1
1
1
1
1
1
1
1
1
1
1
1
1
1
1
1
1
1
1
1
1
1
1
1
1
1
1
1
1
1
1
1
1
1
1
1
1
1
1
1
1
1
1
1
1
1
1
1
1
1
1
1
1
1
1
1
1
1
1
1
1
1
1
1
1
1
1
1
1
1
1
1
1
1
1
1
1
1
1
1
1
1
1
1
1
1
1
1
1
1
1
1
1
1
1
1
1
1
1
1
1
1
1
1
1
1
1
1
1
1
1
1
1
1
1
1
1
1
1
1
1
1
1
1
1
1
1
1
1
1
1
1
1
1
1
1
1
1
1
1
1
1
1
1
1
1
1
1
1
1
1
1
1
1
1
1
1
1
1
1
1
1
1
1
1
1
1
1
1
1
1
1
1
1
1
1
1
1
1
1
1
1
1
1
1
1
1
1
1
1
1
1
1
1
1
1
1
1
1
1
1
1
1
1
1
1
1
1
1
1
1
1
1
1
1
1
1
1
1
1
1
1
1
1
1
1
1
1
1
1
1
1
1
1
1
1
1
1
1
1
1
1
1
1
1
1
1
1
1
1
1
1
1
1
1
1
1
1
1
1
1
1
1
1
1
1
1
1
1
1
1
1
1
1
1
1
1
1
1
1
1
1
1
1
1
1
1
1
1
1
1
1
1
1
1
1
1
1
1
1
1
1
1
1
1
1
1
1
1
1
1
1
1
1
1
1
1
1
1
1
1
1
1
1
1
1
1
1
1
1
1
1
1
1
1
1
1
1
1
1
1
1
1
1
1
1
1
1
1
1
1
1
1
1
1
1
1
1
1
1
1
1
1
1
1
1
1
1
1
1
1
1
1
1
1
1
1
1
1
1
1
1
1
1
1
1
1
1
1
1
1
1
1
1
1
1
1
1
1
1
1
1
1
1
1
1
1
1
1
1
1
1
1
1
1
1
1
1
1
1
1
1
1
1
1
1
1
1
1
1
1
1
1
1
1
1
1
1
1
1
1
1
1
1
1
1
1
1
1
1
1
1
1
1
1
1
1
1
1
1
1
1
1
1
1
1
1
1
1
1
1
1
1
1
1
1
1
1
1
1
1
1
1
1
1
1
1
1
1
1
1
1
1
1
1
1
1
1
1
1
1
1
1
1
1
1
1
1
1
1
1
1
1
1
1
1
1
1
1
1
1
1
1
1
1
1
1
1
1
1
1
1
1
1
1
1
1
1
1
1
1
1
1
1
1
1
1
1
1
1
1
1
1
1
1
1
1
1
1
1
1
1
1
1
1
1
1
1
1
1
1
1
1
1
1
1
1
1
1
1
1
1
1
1
1
1
1
1
1
1
1
1
1
1
1
1
1
1
1
1
1
1
1
1
1
1
1
1
1
1
1
1
1
1
1
1
1
1
1
1
1
1
1
1
1
1
1
1
1
1
1
1
1
1
1
1
1
1
1
1
1
1
1
1
1
1
1
1
1
1
1
1
1
1
1
1
1
1
1
1
1
1
1
1
1
1
1
1
1
1
1
1
1
1
1
1
1
1
1
1
1
1
1
1
1
1
1
1
1
1
1
1
1
1
1
1
1
1
1
1
1
1
1
1
1
1
1
1
1
1
1
1
1
1
1
1
1
1
1
1
1
1
1
1
1
1
1
1
1
1
1
1
1
1
1
1
1
1
1
1
1
1
1
1
1
1
1
1
1
1
1
1
1
1
1
1
1
1
1
1
1
1
1
1
1
1
1
1
1
1
1
1
1
1
1
1
1
1
1
1
1
1
1
1
1
1
1
1
1
1
1
1
1
1
1
1
1
1
1
1
1
1
1
1
1
1
1
1
1
1
1
1
1
1
1
1
1
1
1
1
1
1
1
1
1
1
1
1
1
1
1
1
1
1
1
1
1
1
1
1
1
1
1
1
1
1
1
1
1
1
1
1
1
1
1
1
1
1
1
1
1
1
1
1
1
1
1
1
1
1
1
1
1
1
1
1
1
1
1
1
1
1
1
1
1
1
1
1
1
1
1
1
1
1
1
1
1
1
1
1
1
1
1
1
1
1
1
1
1
1
1
1
1
1
1
1
1
1
1
1
1
1
1
1
1
1
1
1
1
1
1
1
1
1
1
1
1
1
1
1
1
1
1
1
1
1
1
1
1
1
1
1
1
1
1
1
1
1
1
1
1
1
1
1
1
1
1
1
1
1
1
1
1
1
1
1
1
1
1
1
1
1
1
1
1
1
1
1
1
1
1
1
1
1
1
1
1
1
1
1
1
1
1
1
1
1
1
1
1
1
1
1
1
1
1
1
1
1
1
1
1
1
1
1
1
1
1
1
1
1
1
1
1
1
1
1
1
1
1
1
1
1
1
1
1
1
1
1
1
1
1
1
1
1
1
1
1
1
1
1
1
1
1
1
1
1
1
1
1
1
1
1
1
1
1
1
1
1
1
1
1
1
1
1
1
1
1
1
1
1
1
1
1
1
1
1
1
1
1
1
1
1
1
1
1
1
1
1
1
1
1
1
1
1
1
1
1
1
1
1
1
1
1
1
1
1
1
1
1
1
1
1
1
1
1
1
1
1
1
1
1
1
1
1
1
1
1
1
1
1
1
1
1
1
1
1
1
1
1
1
1
1
1
1
1
1
1
1
1
1
1
1
1
1
1
1
1
1
1
1
1
1
1
1
1
1
1
1
1
1
1
1
1
1
1
1
1
1
1
1
1
1
1
1
1
1
1
1
1
1
1
1
1
1
1
1
1
1
1
1
1
1
1
1
1
1
1
1
1
1
1
1
1
1
1
1
1
1
1
1
1
1
1
1
1
1
1
1
1
1
1
1
1
1
1
1
1
1
1
1
1
1
1
1
1
1
1
1
1
1
1
1
1
1
1
1
1
1
1
1
1
1
1
1
1
1
1
1
1
1
1
1
1
1
1
1
1
1
1
1
1
1
1
1
1
1
1
1
1
1
1
1
1
1
1
1
1
1
1
1
1
1
1
1
1
1
1
1
1
1
1
1
1
1
1
1
1
1
1
1
1
1
1
1
1
1
1
1
1
1
1
1
1
1
1
1
1
1
1
1
1
1
1
1
1
1
1
1
1
1
1
1
1
1
1
1
1
1
1
1
1
1
1
1
1
1
1
1
1
1
1
1
1
1
1
1
1
1
1
1
1
1
1
1
1
1
1
1
1
1
1
1
1
1
1
1
1
1
1
1
1
1
1
1
1
1
1
1
1
1
1
1
1
1
1
1
1
1
1
1
1
1
1
1
1
1
1
1
1
1
1
1
1
1
1
1
1
1
1
1
1
1
1
1
1
1
1
1
1
1
1
1
1
1
1
1
1
1
1
1
1
1
1
1
1
1
1
1
1
1
1
1
1
1
1
1
1
1
1
1
1
1
1
1
1
1
1
1
1
1
1
1
1
1
1
1
1
1
1
1
1
1
1
1
1
1
1
1
1
1
1
1
1
1
1
1
1
1
1
1
1
1
1
1
1
1
1
1
1
1
1
1
1
1
1
1
1
1
1
1
1
1
1
1
1
1
1
1
1
1
1
1
1
1
1
1
1
1
1
1
1
1
1
1
1
1
1
1
1
1
1
1
1
1
1
1
1
1
1
1
1
1
1
1
1
1
1
1
1
1
1
1
1
1
1
1
1
1
1
1
1
1
1
1
1
1
1
1
1
1
1
1
1
1
1
1
1
1
1
1
1
1
1
1
1
1
1
1
1
1
1
1
1
1
1
1
1
1
1
1
1
1
1
1
1
1
1
1
1
1
1
1
1
1
1
1
1
1
1
1
1
1
1
1
1
1
1
1
1
1
1
1
1
1
1
1
1
1
1
1
1
1
1
1
1
1
1
1
1
1
1
1
1
1
1
1
1
1
1
1
1
1
1
1
1
1
1
1
1
1
1
1
1
1
1
1
1
1
1
1
1
1
1
1
1
1
1
1
1
1
1
1
1
1
1
1
1
1
1
1
1
1
1
1
1
1
1
1
1
1
1
1
1
1
1
1
1
1
1
1
1
1
1
1
1
1
1
1
1
1
1
1
1
1
1
1
1
1
1
1
1
1
1
1
1
1
1
1
1
1
1
1
1
1
1
1
1
1
1
1
1
1
1
1
1
1
1
1
1
1
1
1
1
1
1
1
1
1
1
1
1
1
1
1
1
1
1
1
1
1
1
1
1
1
1
1
1
1
1
1
1
1
1
1
1
1
1
1
1
1
1
1
1
1
1
1
1
1
1
1
1
1
1
1
1
1
1
1
1
1
1
1
1
1
1
1
1
1
1
1
1
1
1
1
1
1
1
1
1
1
1
1
1
1
1
1
1
1
1
1
1
1
1
1
1
1
1
1
1
1
1
1
1
1
1
1
1
1
1
1
1
1
1
1
1
1
1
1
1
1
1
1
1
1
1
1
1
1
1
1
1
1
1
1
1
1
1
1
1
1
1
1
1
1
1
1
1
1
1
1
1
1
1
1
1
1
1
1
1
1
1
1
1
1
1
1
1.28954
1.75344
2.33075
2.88302
3.5556
4.18741
4.64991
5.10415
5.34588
5.26619
4.93817
4.46511
4.06714
3.79017
3.66804
3.58219
3.56068
3.57958
3.61242
3.64795
3.68589
3.70986
3.72409
3.73125
3.7384
3.7474
3.75728
3.76357
3.76597
3.76898
3.77743
3.79041
3.79858
3.7992
3.79695
3.79082
3.78092
3.77273
3.76854
3.7672
3.76696
3.76688
3.76885
3.77
3.77017
3.76942
3.76619
3.7653
1.00239
1.01446
1.0706
1.20709
1.4087
1.76775
2.21821
2.75522
3.31161
3.73997
3.89977
4.03918
4.04661
3.96382
3.84406
3.77905
3.74208
3.70828
3.67354
3.66681
3.67653
3.70021
3.7287
3.74707
3.75338
3.75222
3.75401
3.75744
3.7583
3.75959
3.76377
3.77011
3.77538
3.77906
3.77933
3.77712
3.7732
3.76983
3.76916
3.7698
3.77184
3.77585
3.7789
3.77915
3.7785
3.77619
3.7706
3.76859
1
0.999978
1.00006
1.0001
1.00132
1.01327
1.06248
1.22003
1.60616
2.34155
3.32641
3.90662
4.31475
4.3276
4.25888
4.11553
3.95951
3.77915
3.67222
3.6686
3.6783
3.69939
3.73455
3.75778
3.76357
3.76514
3.7623
3.76254
3.76504
3.76778
3.76968
3.77198
3.77188
3.77047
3.76707
3.76284
3.75996
3.75947
3.76066
3.76341
3.76884
3.77699
3.78345
3.78514
3.78482
3.78308
3.77798
3.77569
1
1
1
1
0.999998
1
1.00003
1.00007
1.00581
1.06767
1.43303
2.1247
3.21491
3.80585
4.03239
4.02506
3.92797
3.88365
3.83484
3.76409
3.74717
3.7208
3.70562
3.70914
3.72302
3.73561
3.74603
3.75855
3.76828
3.77401
3.77905
3.78028
3.77961
3.77791
3.77352
3.77019
3.76798
3.76621
3.76639
3.7688
3.7736
3.77927
3.78259
3.78205
3.77977
3.77555
3.77114
3.77095
1
1
1
1
1
1
1
0.999999
1
0.999923
1.00224
1.04293
1.29248
1.99715
2.82177
3.75432
3.96072
4.01784
3.98119
3.92163
3.80767
3.73472
3.68773
3.66784
3.67027
3.68098
3.69521
3.71525
3.7358
3.75229
3.76653
3.77567
3.77864
3.7793
3.77813
3.7777
3.77719
3.77609
3.77623
3.77866
3.78293
3.78594
3.78566
3.78322
3.77917
3.77217
3.76694
3.76709
1
1
1
1
1
1
1
1
1
0.999997
0.999998
0.999955
1.0007
1.03284
1.20749
1.82317
2.69824
3.45284
3.91698
3.91243
3.86737
3.82653
3.77648
3.73667
3.70506
3.69004
3.68588
3.69293
3.71491
3.73738
3.75499
3.76844
3.77333
3.77442
3.77405
3.77366
3.77206
3.76996
3.76976
3.77255
3.77595
3.77566
3.77319
3.77025
3.76645
3.76255
3.75992
3.763
1
1
1
1
1
1
1
1
1
1
1
0.999998
0.999998
0.999968
1.00044
1.01869
1.20153
1.65951
2.55932
3.20562
3.73321
3.87996
3.87762
3.8416
3.78861
3.75732
3.73266
3.71637
3.71807
3.72847
3.74244
3.76039
3.76761
3.77172
3.77055
3.76846
3.76601
3.76393
3.76367
3.76858
3.77223
3.77238
3.77112
3.76963
3.76865
3.76835
3.76685
3.77012
1
1
1
1
1
1
1
1
1
1
1
1
1
0.999998
0.999998
0.999971
1.00062
1.01182
1.15158
1.59333
2.41012
3.14546
3.49464
3.72194
3.77915
3.78415
3.76458
3.74054
3.74016
3.74248
3.74725
3.75118
3.75858
3.76357
3.76414
3.76502
3.76526
3.76608
3.77056
3.77663
3.77925
3.77916
3.77787
3.77566
3.77458
3.77416
3.77355
3.77432
1
1
1
1
1
1
1
1
1
1
1
1
1
1
1
0.999998
0.999998
0.999981
1.00042
1.01218
1.11211
1.57407
2.2549
3.13574
3.46683
3.61405
3.6696
3.70449
3.72635
3.72133
3.71671
3.72295
3.73149
3.74182
3.75339
3.76133
3.76731
3.77258
3.77815
3.78293
3.78326
3.78291
3.78229
3.77973
3.77534
3.77347
3.7732
3.77316
1
1
1
1
1
1
1
1
1
1
1
1
1
1
1
1
1
0.999998
0.999998
0.999985
1.00025
1.01415
1.10376
1.49533
2.239
2.99124
3.54492
3.6335
3.6951
3.70287
3.69728
3.70247
3.70751
3.71579
3.72793
3.74145
3.75485
3.76707
3.77463
3.7777
3.778
3.77792
3.77899
3.77825
3.77526
3.77331
3.7738
3.77355
1
1
1
1
1
1
1
1
1
1
1
1
1
1
1
1
1
1
1
0.999999
0.999999
0.999988
1.0003
1.01004
1.12021
1.45466
2.22877
2.94056
3.49356
3.7023
3.73288
3.74043
3.74328
3.73699
3.73677
3.74496
3.75354
3.7649
3.77416
3.77679
3.77523
3.77262
3.77202
3.77038
3.76755
3.76593
3.76722
3.76764
1
1
1
1
1
1
1
1
1
1
1
1
1
1
1
1
1
1
1
1
1
0.999998
0.999999
0.999987
1.00053
1.00882
1.12278
1.50145
2.25702
2.95377
3.42547
3.66751
3.74404
3.74939
3.7645
3.77087
3.77086
3.7749
3.78293
3.78665
3.78565
3.7821
3.77891
3.77389
3.77019
3.76984
3.77027
3.7706
1
1
1
1
1
1
1
1
1
1
1
1
1
1
1
1
1
1
1
1
1
1
1
0.999998
0.999999
0.999989
1.00079
1.01308
1.12225
1.57704
2.32379
3.12162
3.41753
3.57515
3.70223
3.7415
3.74118
3.75365
3.76607
3.77334
3.77699
3.77494
3.77285
3.77233
3.77331
3.77594
3.77819
3.77823
1
1
1
1
1
1
1
1
1
1
1
1
1
1
1
1
1
1
1
1
1
1
1
1
1
0.999998
0.999999
0.999994
1.00086
1.02239
1.14788
1.66998
2.44065
3.29223
3.57249
3.63753
3.67039
3.70093
3.72823
3.73923
3.74312
3.74754
3.7546
3.76601
3.77304
3.7744
3.77619
3.77727
1
1
1
1
1
1
1
1
1
1
1
1
1
1
1
1
1
1
1
1
1
1
1
1
1
1
1
0.999999
0.999997
1.00002
1.0013
1.0351
1.21664
1.83983
2.67631
3.35835
3.69977
3.74045
3.75415
3.75675
3.74612
3.74639
3.75549
3.76631
3.77289
3.77443
3.77634
3.77714
1
1
1
1
1
1
1
1
1
1
1
1
1
1
1
1
1
1
1
1
1
1
1
1
1
1
1
1
1
1
0.999998
1.00011
1.00311
1.05895
1.35789
2.08135
2.9101
3.46425
3.71608
3.7689
3.77049
3.78685
3.79027
3.79164
3.7918
3.78986
3.78677
3.78397
1
1
1
1
1
1
1
1
1
1
1
1
1
1
1
1
1
1
1
1
1
1
1
1
1
1
1
1
1
1
1
1
0.999996
1.00037
1.00894
1.11166
1.58266
2.46729
3.20661
3.48525
3.64579
3.75564
3.75621
3.76759
3.78046
3.78595
3.78814
3.78479
1
1
1
1
1
1
1
1
1
1
1
1
1
1
1
1
1
1
1
1
1
1
1
1
1
1
1
1
1
1
1
1
0.999999
0.999999
1
1.00141
1.02878
1.23001
1.90259
2.86719
3.54217
3.62337
3.66495
3.70541
3.73981
3.76123
3.76832
3.76719
1
1
1
1
1
1
1
1
1
1
1
1
1
1
1
1
1
1
1
1
1
1
1
1
1
1
1
1
1
1
1
1
1
1
1
0.999998
1.00009
1.00533
1.08667
1.49297
2.40174
3.23362
3.69823
3.76894
3.77986
3.78354
3.77429
3.76263
1
1
1
1
1
1
1
1
1
1
1
1
1
1
1
1
1
1
1
1
1
1
1
1
1
1
1
1
1
1
1
1
1
1
1
1
0.999999
1
1.00094
1.02394
1.25246
1.94567
2.89766
3.46695
3.74507
3.79816
3.79688
3.79184
1
1
1
1
1
1
1
1
1
1
1
1
1
1
1
1
1
1
1
1
1
1
1
1
1
1
1
1
1
1
1
1
1
1
1
1
1
1
0.999999
1.00013
1.00673
1.09709
1.60779
2.62094
3.37286
3.56525
3.68046
3.74066
1
1
1
1
1
1
1
1
1
1
1
1
1
1
1
1
1
1
1
1
1
1
1
1
1
1
1
1
1
1
1
1
1
1
1
1
1
1
1
0.999999
1.00001
1.00173
1.04138
1.35302
2.20289
3.21782
3.6405
3.70809
1
1
1
1
1
1
1
1
1
1
1
1
1
1
1
1
1
1
1
1
1
1
1
1
1
1
1
1
1
1
1
1
1
1
1
1
1
1
1
1
1
1
1.00034
1.01678
1.18567
1.91953
2.91024
3.61255
1
1
1
1
1
1
1
1
1
1
1
1
1
1
1
1
1
1
1
1
1
1
1
1
1
1
1
1
1
1
1
1
1
1
1
1
1
1
1
1
1
1
1
1.00012
1.0049
1.1126
1.68108
2.80449
1
1
1
1
1
1
1
1
1
1
1
1
1
1
1
1
1
1
1
1
1
1
1
1
1
1
1
1
1
1
1
1
1
1
1
1
1
1
1
1
1
1
1
1
1.00002
1.00286
1.06313
1.44876
1
1
1
1
1
1
1
1
1
1
1
1
1
1
1
1
1
1
1
1
1
1
1
1
1
1
1
1
1
1
1
1
1
1
1
1
1
1
1
1
1
1
1
1
1
1.00001
1.00111
1.01749
1
1
1
1
1
1
1
1
1
1
1
1
1
1
1
1
1
1
1
1
1
1
1
1
1
1
1
1
1
1
1
1
1
1
1
1
1
1
1
1
1
1
1
1
1
1
1.00001
0.999811
1
1
1
1
1
1
1
1
1
1
1
1
1
1
1
1
1
1
1
1
1
1
1
1
1
1
1
1
1
1
1
1
1
1
1
1
1
1
1
1
1
1
1
1
1
1
1
0.99993
1
1
1
1
1
1
1
1
1
1
1
1
1
1
1
1
1
1
1
1
1
1
1
1
1
1
1
1
1
1
1
1
1
1
1
1
1
1
1
1
1
1
1
1
1
1
1
0.99999
1
1
1
1
1
1
1
1
1
1
1
1
1
1
1
1
1
1
1
1
1
1
1
1
1
1
1
1
1
1
1
1
1
1
1
1
1
1
1
1
1
1
1
1
1
1
1
1
1
1
1
1
1
1
1
1
1
1
1
1
1
1
1
1
1
1
1
1
1
1
1
1
1
1
1
1
1
1
1
1
1
1
1
1
1
1
1
1
1
1
1
1
1
1
1
1
1
1
1
1
1
1
1
1
1
1
1
1
1
1
1
1
1
1
1
1
1
1
1
1
1
1
1
1
1
1
1
1
1
1
1
1
1
1
1
1
1
1
1
1
1
1
1
1
1
1
1
1
1
1
1
1
1
1
1
1
1
1
1
1
1
1
1
1
1
1
1
1
1
1
1
1
1
1
1
1
1
1
1
1
1
1
1
1
1
1
1
1
1
1
1
1
1
1
1
1
1
1
1
1
1
1
1
1
1
1
1
1
1
1
1
1
1
1
1
1
1
1
1
1
1
1
1
1
1
1
1
1
1
1
1
1
1
1
1
1
1
1
1
1
1
1
1
1
1
1
1
1
1
1
1
1
1
1
1
1
1
1
1
1
1
1
1
1
1
1
1
1
1
1
1
1
1
1
1
1
1
1
1
1
1
1
1
1
1
1
1
1
1
1
1
1
1
1
1
1
1
1
1
1
1
1
1
1
1
1
1
1
1
1
1
1
1
1
1
1
1
1
1
1
1
1
1
1
1
1
1
1
1
1
1
1
1
1
1
0.99999
1
1
1
1
1
1
1
1
1
1
1
1
1
1
1
1
1
1
1
1
1
1
1
1
1
1
1
1
1
1
1
1
1
1
1
1
1
1
1
1
1
1
1
1
1
1
1
0.99993
1
1
1
1
1
1
1
1
1
1
1
1
1
1
1
1
1
1
1
1
1
1
1
1
1
1
1
1
1
1
1
1
1
1
1
1
1
1
1
1
1
1
1
1
1
1
1.00001
0.999812
1
1
1
1
1
1
1
1
1
1
1
1
1
1
1
1
1
1
1
1
1
1
1
1
1
1
1
1
1
1
1
1
1
1
1
1
1
1
1
1
1
1
1
1
1
1.00001
1.00112
1.0175
1
1
1
1
1
1
1
1
1
1
1
1
1
1
1
1
1
1
1
1
1
1
1
1
1
1
1
1
1
1
1
1
1
1
1
1
1
1
1
1
1
1
1
1
1.00002
1.00286
1.06313
1.44887
1
1
1
1
1
1
1
1
1
1
1
1
1
1
1
1
1
1
1
1
1
1
1
1
1
1
1
1
1
1
1
1
1
1
1
1
1
1
1
1
1
1
1
1.00012
1.0049
1.11257
1.68098
2.80487
1
1
1
1
1
1
1
1
1
1
1
1
1
1
1
1
1
1
1
1
1
1
1
1
1
1
1
1
1
1
1
1
1
1
1
1
1
1
1
1
1
1
1.00034
1.01678
1.18568
1.91935
2.91025
3.61275
1
1
1
1
1
1
1
1
1
1
1
1
1
1
1
1
1
1
1
1
1
1
1
1
1
1
1
1
1
1
1
1
1
1
1
1
1
1
1
0.999999
1.00001
1.00173
1.04137
1.35306
2.2029
3.21761
3.64059
3.70837
1
1
1
1
1
1
1
1
1
1
1
1
1
1
1
1
1
1
1
1
1
1
1
1
1
1
1
1
1
1
1
1
1
1
1
1
1
1
0.999999
1.00013
1.00673
1.09709
1.60776
2.62105
3.37266
3.56517
3.68056
3.7409
1
1
1
1
1
1
1
1
1
1
1
1
1
1
1
1
1
1
1
1
1
1
1
1
1
1
1
1
1
1
1
1
1
1
1
1
0.999999
1
1.00094
1.02394
1.25246
1.94562
2.89775
3.46691
3.74503
3.79816
3.79692
3.79191
1
1
1
1
1
1
1
1
1
1
1
1
1
1
1
1
1
1
1
1
1
1
1
1
1
1
1
1
1
1
1
1
1
1
1
0.999998
1.00009
1.00533
1.08667
1.49297
2.40175
3.2336
3.69824
3.76894
3.77986
3.78354
3.7743
3.76264
1
1
1
1
1
1
1
1
1
1
1
1
1
1
1
1
1
1
1
1
1
1
1
1
1
1
1
1
1
1
1
1
0.999999
0.999999
1
1.00141
1.02878
1.23001
1.90258
2.8672
3.54216
3.62337
3.66494
3.70541
3.73982
3.76124
3.76833
3.7672
1
1
1
1
1
1
1
1
1
1
1
1
1
1
1
1
1
1
1
1
1
1
1
1
1
1
1
1
1
1
1
1
0.999996
1.00037
1.00894
1.11166
1.58266
2.46729
3.20662
3.48524
3.64578
3.75564
3.7562
3.76758
3.78046
3.78595
3.78815
3.78479
1
1
1
1
1
1
1
1
1
1
1
1
1
1
1
1
1
1
1
1
1
1
1
1
1
1
1
1
1
1
0.999998
1.00011
1.00311
1.05895
1.35789
2.08135
2.91011
3.46425
3.71608
3.7689
3.77049
3.78685
3.79027
3.79164
3.7918
3.78986
3.78677
3.78397
1
1
1
1
1
1
1
1
1
1
1
1
1
1
1
1
1
1
1
1
1
1
1
1
1
1
1
0.999999
0.999997
1.00002
1.0013
1.0351
1.21664
1.83983
2.67631
3.35835
3.69977
3.74045
3.75416
3.75675
3.74612
3.74639
3.75549
3.76631
3.77289
3.77443
3.77634
3.77714
1
1
1
1
1
1
1
1
1
1
1
1
1
1
1
1
1
1
1
1
1
1
1
1
1
0.999998
0.999999
0.999994
1.00086
1.02239
1.14788
1.66998
2.44065
3.29223
3.57249
3.63754
3.67039
3.70093
3.72823
3.73923
3.74312
3.74754
3.7546
3.76601
3.77304
3.7744
3.77619
3.77727
1
1
1
1
1
1
1
1
1
1
1
1
1
1
1
1
1
1
1
1
1
1
1
0.999998
0.999999
0.999989
1.00079
1.01308
1.12225
1.57704
2.32379
3.12163
3.41753
3.57515
3.70223
3.7415
3.74118
3.75365
3.76607
3.77334
3.77699
3.77494
3.77285
3.77233
3.77331
3.77594
3.77819
3.77823
1
1
1
1
1
1
1
1
1
1
1
1
1
1
1
1
1
1
1
1
1
0.999998
0.999999
0.999987
1.00053
1.00882
1.12278
1.50145
2.25702
2.95377
3.42547
3.66751
3.74404
3.74939
3.7645
3.77087
3.77086
3.7749
3.78293
3.78665
3.78565
3.7821
3.77891
3.77389
3.77019
3.76984
3.77027
3.7706
1
1
1
1
1
1
1
1
1
1
1
1
1
1
1
1
1
1
1
0.999999
0.999999
0.999988
1.0003
1.01004
1.12021
1.45466
2.22877
2.94056
3.49356
3.7023
3.73288
3.74043
3.74328
3.73699
3.73677
3.74496
3.75354
3.7649
3.77416
3.77679
3.77523
3.77262
3.77202
3.77038
3.76755
3.76593
3.76722
3.76763
1
1
1
1
1
1
1
1
1
1
1
1
1
1
1
1
1
0.999998
0.999998
0.999985
1.00025
1.01415
1.10376
1.49533
2.23901
2.99124
3.54492
3.6335
3.6951
3.70287
3.69728
3.70247
3.70751
3.71579
3.72793
3.74145
3.75485
3.76707
3.77463
3.7777
3.778
3.77792
3.77899
3.77825
3.77526
3.77331
3.7738
3.77355
1
1
1
1
1
1
1
1
1
1
1
1
1
1
1
0.999998
0.999998
0.999981
1.00042
1.01218
1.11211
1.57407
2.2549
3.13574
3.46683
3.61405
3.6696
3.70449
3.72635
3.72133
3.71671
3.72295
3.73149
3.74182
3.75339
3.76133
3.76731
3.77258
3.77815
3.78293
3.78326
3.78291
3.78229
3.77973
3.77534
3.77347
3.7732
3.77316
1
1
1
1
1
1
1
1
1
1
1
1
1
0.999998
0.999998
0.999971
1.00062
1.01182
1.15158
1.59333
2.41012
3.14546
3.49464
3.72193
3.77915
3.78415
3.76458
3.74054
3.74016
3.74248
3.74725
3.75118
3.75858
3.76357
3.76414
3.76502
3.76526
3.76608
3.77056
3.77663
3.77925
3.77916
3.77787
3.77566
3.77458
3.77416
3.77355
3.77432
1
1
1
1
1
1
1
1
1
1
1
0.999998
0.999998
0.999968
1.00044
1.01869
1.20153
1.6595
2.55932
3.20562
3.73321
3.87996
3.87762
3.84161
3.78861
3.75732
3.73266
3.71637
3.71807
3.72847
3.74244
3.76039
3.76761
3.77172
3.77055
3.76846
3.76601
3.76393
3.76367
3.76858
3.77223
3.77238
3.77112
3.76963
3.76865
3.76835
3.76685
3.77012
1
1
1
1
1
1
1
1
1
0.999997
0.999998
0.999955
1.0007
1.03284
1.20749
1.82317
2.69824
3.45283
3.91698
3.91243
3.86737
3.82653
3.77648
3.73667
3.70506
3.69004
3.68588
3.69293
3.71491
3.73738
3.75499
3.76844
3.77333
3.77442
3.77405
3.77366
3.77206
3.76996
3.76976
3.77255
3.77595
3.77566
3.77319
3.77025
3.76645
3.76255
3.75992
3.763
1
1
1
1
1
1
1
0.999999
1
0.999923
1.00224
1.04293
1.29248
1.99715
2.82177
3.75432
3.96072
4.01784
3.98119
3.92163
3.80767
3.73472
3.68773
3.66784
3.67027
3.68098
3.69521
3.71525
3.7358
3.75229
3.76653
3.77567
3.77864
3.7793
3.77813
3.7777
3.77719
3.77609
3.77623
3.77866
3.78293
3.78594
3.78566
3.78322
3.77917
3.77217
3.76694
3.76709
1
1
1
1
0.999998
1
1.00003
1.00007
1.00581
1.06767
1.43303
2.1247
3.21491
3.80585
4.03239
4.02506
3.92797
3.88364
3.83484
3.76409
3.74717
3.7208
3.70562
3.70914
3.72302
3.73561
3.74603
3.75855
3.76828
3.77401
3.77905
3.78028
3.77961
3.77791
3.77353
3.77019
3.76798
3.76621
3.76639
3.7688
3.7736
3.77927
3.78259
3.78205
3.77977
3.77555
3.77115
3.77095
1
0.999978
1.00006
1.0001
1.00132
1.01327
1.06248
1.22003
1.60616
2.34155
3.32641
3.90661
4.31475
4.3276
4.25888
4.11554
3.95951
3.77914
3.67222
3.6686
3.6783
3.69939
3.73455
3.75778
3.76357
3.76514
3.7623
3.76254
3.76504
3.76778
3.76968
3.77198
3.77188
3.77047
3.76707
3.76284
3.75996
3.75947
3.76066
3.76341
3.76884
3.77699
3.78345
3.78514
3.78482
3.78308
3.77798
3.77569
1.00239
1.01446
1.0706
1.20709
1.4087
1.76775
2.21821
2.75522
3.31161
3.73997
3.89977
4.03918
4.04661
3.96382
3.84406
3.77905
3.74208
3.70828
3.67354
3.6668
3.67653
3.70021
3.7287
3.74707
3.75338
3.75222
3.75401
3.75744
3.7583
3.75959
3.76377
3.77011
3.77538
3.77906
3.77933
3.77712
3.7732
3.76983
3.76916
3.7698
3.77184
3.77585
3.7789
3.77915
3.7785
3.77619
3.7706
3.76859
1.28954
1.75344
2.33075
2.88302
3.5556
4.18741
4.64991
5.10415
5.34588
5.26619
4.93817
4.46511
4.06714
3.79017
3.66804
3.58219
3.56068
3.57958
3.61242
3.64795
3.68589
3.70986
3.72409
3.73125
3.7384
3.7474
3.75727
3.76357
3.76597
3.76898
3.77743
3.79041
3.79858
3.7992
3.79695
3.79082
3.78092
3.77273
3.76854
3.7672
3.76696
3.76688
3.76885
3.77
3.77017
3.76942
3.76619
3.7653
2.64073
1.73826
1.14521
0.732035
0.689976
0.722804
0.702844
0.716456
0.791065
0.884143
0.91398
0.929305
0.97097
1.02024
1.03148
1.0386
1.06101
1.07544
1.0734
1.0694
1.06846
1.06668
1.05839
1.05527
1.05822
1.05984
1.05633
1.04521
1.03673
1.0367
1.03783
1.03968
1.04265
1.04469
1.04532
1.04565
1.04411
1.0417
1.04197
1.04409
1.04834
1.05036
1.05049
1.05041
1.05006
1.04909
1.04784
1.04809
1.05499
1.18743
1.88881
3.31126
5.18257
7.78005
10.2933
10.1793
9.35399
8.35982
7.96676
7.83662
7.70047
7.55842
7.43102
7.31419
7.15337
6.91304
6.66676
6.55636
6.4838
6.40291
6.29965
6.15168
5.93141
5.68309
5.53057
5.45716
5.41967
5.40809
5.36079
5.29267
5.16956
4.96023
4.76573
4.66076
4.59804
4.55235
4.51586
4.4679
4.3937
4.26275
4.12881
4.06268
4.01851
3.97821
3.93739
3.89036
3.81794
3.67794
3.52256
3.45894
3.42743
3.40237
3.39689
3.39332
3.36477
3.3226
3.21869
3.04573
2.94815
2.9164
2.89492
2.87933
2.87445
2.859
2.83672
2.79829
2.7112
2.62003
2.58765
2.56832
2.54504
2.51596
2.47554
2.40817
2.35634
2.33906
2.32541
2.31275
2.29843
2.28127
2.25173
2.18617
2.0876
2.04054
2.02739
2.01717
2.00663
1.9978
1.98959
1.98023
1.96791
1.94087
1.88445
1.81732
1.78557
1.76998
1.75816
1.75222
1.77219
1.86092
2.12067
2.56072
3.13091
3.67033
4.11452
4.48203
4.75444
4.90848
4.87322
4.8218
4.75728
4.66196
4.53917
4.40886
4.27112
4.20995
4.18837
4.17083
4.16899
4.17267
4.1561
4.13306
4.08286
3.95673
3.83408
3.80286
3.7882
3.7814
3.78396
3.76712
3.74397
3.7184
3.66909
3.58204
3.53482
3.51599
3.50087
3.49144
3.48239
3.46745
3.44855
3.36716
3.36067
2.72909
2.25046
1.74394
1.40792
1.28495
1.14497
1.02592
1.0173
0.984074
0.916595
0.902005
0.915001
0.941588
0.966344
0.980271
1.00658
1.02499
1.02454
1.02662
1.03313
1.04613
1.05244
1.05817
1.06043
1.06011
1.05446
1.0444
1.04159
1.04215
1.04284
1.0447
1.04831
1.04976
1.05005
1.04955
1.04695
1.04474
1.04424
1.04459
1.04615
1.04745
1.04782
1.04794
1.0476
1.04556
1.04598
1.06
1.19155
1.90378
2.82941
3.18252
3.8506
4.76355
6.58515
8.07428
8.67113
8.53848
8.24212
7.94224
7.68013
7.54309
7.45143
7.32661
7.16955
6.97163
6.74139
6.54652
6.44488
6.35646
6.2523
6.13013
5.9752
5.80254
5.64132
5.50367
5.41407
5.35838
5.30069
5.22372
5.11509
4.97284
4.83175
4.72947
4.64633
4.56925
4.50719
4.45856
4.39209
4.26894
4.13292
4.07871
4.04297
4.00148
3.95629
3.90439
3.83039
3.71112
3.56909
3.49204
3.45627
3.42749
3.39765
3.36793
3.33949
3.29557
3.21418
3.08742
2.98644
2.93727
2.91089
2.89337
2.8751
2.85087
2.82287
2.79098
2.73457
2.64589
2.58776
2.56548
2.54989
2.53107
2.49826
2.44212
2.37375
2.33712
2.3202
2.30484
2.2903
2.27391
2.25091
2.20159
2.1195
2.05651
2.03318
2.02145
2.01162
2.00146
1.98825
1.97458
1.95891
1.93806
1.89475
1.8346
1.79436
1.78638
1.79733
1.84458
1.99334
2.24844
2.54972
2.80163
3.00992
3.28618
3.57894
3.82863
4.01177
4.20128
4.35737
4.49985
4.61538
4.61022
4.54731
4.44522
4.31982
4.24406
4.21133
4.18843
4.19184
4.19673
4.17261
4.13887
4.08229
3.97188
3.85631
3.82155
3.80942
3.80243
3.7963
3.7753
3.75085
3.72396
3.68
3.60384
3.5526
3.53266
3.50983
3.48713
3.4703
3.45209
3.4332
3.35945
3.66568
3.32792
2.86849
2.40369
1.95021
1.66992
1.45326
1.21072
1.09541
1.0396
0.958825
0.920796
0.927173
0.942472
0.943013
0.945809
0.9632
0.982672
0.988131
0.993875
1.01073
1.03357
1.04347
1.04785
1.05086
1.0511
1.04859
1.04581
1.04626
1.04735
1.04884
1.05227
1.05415
1.05383
1.05251
1.04893
1.04503
1.04407
1.04372
1.04385
1.0447
1.04594
1.04624
1.046
1.04476
1.0475
1.08607
1.29444
1.97248
3.10511
3.39647
3.30498
3.32738
3.45253
4.08032
5.87476
7.90147
8.77664
8.59221
8.04983
7.60069
7.46871
7.38653
7.24502
7.10238
6.98479
6.82802
6.61148
6.39814
6.25289
6.13272
6.03034
5.94617
5.8703
5.76246
5.61656
5.45319
5.31668
5.21095
5.10051
4.98587
4.90359
4.85267
4.79023
4.70749
4.61792
4.53498
4.43727
4.33404
4.23001
4.14618
4.08459
4.02069
3.95549
3.89499
3.83688
3.76918
3.68359
3.60162
3.53365
3.48063
3.44425
3.41113
3.36434
3.30304
3.23145
3.15354
3.08608
3.04311
2.99857
2.9401
2.89314
2.86743
2.84742
2.81908
2.76805
2.69458
2.63415
2.59789
2.57123
2.54291
2.50956
2.47125
2.42465
2.37172
2.33335
2.31358
2.29936
2.28163
2.25626
2.22181
2.17742
2.12811
2.08168
2.0472
2.02992
2.01793
2.00531
1.99022
1.9718
1.94692
1.90828
1.86621
1.83371
1.82863
1.84974
1.94991
2.16618
2.4694
2.73924
2.91719
2.9846
2.99039
3.00887
3.0693
3.18155
3.36508
3.65154
4.01523
4.2869
4.45498
4.54723
4.54687
4.49174
4.38315
4.28218
4.23217
4.21189
4.20004
4.18093
4.14074
4.09205
4.03539
3.95999
3.881
3.83009
3.80706
3.78871
3.77007
3.74729
3.72528
3.70192
3.66981
3.62829
3.57111
3.51858
3.49089
3.47013
3.44934
3.42463
3.39301
3.318
3.75014
3.61957
3.31864
2.92896
2.47926
2.12636
1.85885
1.57086
1.38712
1.29881
1.17785
1.05858
1.0497
1.02305
0.972527
0.957219
0.956968
0.946834
0.942684
0.946587
0.965619
0.999047
1.01647
1.02289
1.02954
1.03629
1.03793
1.03934
1.04147
1.04744
1.05577
1.05952
1.05972
1.05887
1.05627
1.05162
1.04968
1.04966
1.05023
1.05
1.04921
1.04859
1.04608
1.04415
1.04748
1.11021
1.51084
2.19089
3.09632
3.53135
3.53528
3.44179
3.33329
3.2938
3.3095
3.64981
5.07311
7.34781
8.14424
7.92145
7.68669
7.49037
7.30076
7.14511
7.06276
6.99984
6.89017
6.68102
6.37021
6.15583
6.05868
5.99169
5.95226
5.90245
5.82719
5.70802
5.50825
5.26476
5.10221
5.00788
4.94419
4.89706
4.87082
4.83908
4.78251
4.68972
4.54118
4.38202
4.27677
4.2222
4.17762
4.11575
4.04027
3.96009
3.87615
3.79913
3.74131
3.70342
3.66418
3.60822
3.54626
3.47856
3.40515
3.32904
3.24058
3.1689
3.13621
3.11899
3.09237
3.05052
2.98931
2.92783
2.87689
2.8318
2.78893
2.73833
2.6817
2.63986
2.60982
2.5746
2.53433
2.49869
2.46119
2.41901
2.38177
2.35038
2.31756
2.28857
2.2663
2.24133
2.20866
2.17349
2.14412
2.11406
2.08487
2.04981
2.01052
1.98654
1.97433
1.95785
1.93096
1.89245
1.86459
1.87826
1.95381
2.14631
2.44128
2.76858
2.94742
2.97296
3.00381
3.02385
3.01203
3.00086
2.98176
2.95395
2.97123
3.06511
3.30163
3.61401
3.92369
4.22897
4.3606
4.38709
4.3578
4.33452
4.30369
4.28317
4.25149
4.18038
4.10929
4.0583
4.01646
3.97552
3.91535
3.84739
3.80732
3.78675
3.76457
3.73678
3.71701
3.70077
3.68479
3.65538
3.59793
3.52914
3.48483
3.45758
3.43303
3.40394
3.35945
3.29207
3.76043
3.72944
3.5864
3.32131
2.92591
2.56197
2.26988
1.93064
1.69952
1.56535
1.41673
1.24273
1.1735
1.11293
1.0277
0.972983
0.967963
0.95016
0.94172
0.946467
0.961526
0.974123
0.981696
0.986074
0.991657
1.00266
1.01278
1.02238
1.03051
1.03957
1.05195
1.05565
1.05581
1.05462
1.05169
1.05104
1.05225
1.05471
1.05661
1.05628
1.0547
1.05128
1.04562
1.04669
1.10253
1.60928
2.53317
3.13221
3.5013
3.56434
3.53563
3.45831
3.34705
3.26557
3.24294
3.22061
3.36847
4.3862
6.32867
7.6692
7.77583
7.53371
7.20903
7.07769
7.04081
6.97254
6.84432
6.65637
6.3804
6.13348
6.02828
5.95923
5.91897
5.87006
5.78635
5.69076
5.51983
5.25343
5.06842
4.99479
4.94251
4.90859
4.8743
4.81677
4.75044
4.65324
4.49385
4.34888
4.26816
4.20612
4.14247
4.07894
4.01045
3.93119
3.85284
3.78845
3.73456
3.68204
3.63136
3.58181
3.52711
3.45846
3.37367
3.28596
3.2123
3.16215
3.12826
3.09874
3.06966
3.04089
3.01785
2.97942
2.89759
2.80268
2.7443
2.71305
2.69107
2.66622
2.633
2.58536
2.52527
2.48118
2.45668
2.43761
2.41593
2.38604
2.34493
2.29539
2.25056
2.21738
2.18848
2.16032
2.13347
2.11313
2.09319
2.06299
2.02306
1.98545
1.95936
1.93967
1.91229
1.90228
1.93815
2.11158
2.40959
2.7818
2.95853
3.0952
3.1247
3.10306
3.08289
3.07141
3.05668
3.02721
2.98028
2.94451
2.90168
2.87111
2.89399
3.00871
3.2259
3.56073
3.90032
4.18326
4.30556
4.34988
4.33851
4.29246
4.21959
4.14317
4.07528
4.04385
4.01519
3.97343
3.91627
3.86562
3.81922
3.77681
3.75616
3.73583
3.71498
3.6906
3.66379
3.63364
3.5901
3.53934
3.49075
3.44174
3.40268
3.36968
3.33423
3.29144
3.76187
3.74692
3.70024
3.56581
3.28839
2.94518
2.64941
2.32607
2.04552
1.86015
1.67906
1.48869
1.3841
1.30278
1.18847
1.10178
1.08045
1.04248
0.996839
0.995184
0.994844
0.982977
0.967007
0.962616
0.961533
0.964743
0.974999
0.990131
1.01043
1.02797
1.04193
1.04877
1.04972
1.04893
1.04729
1.04767
1.0503
1.05424
1.05584
1.0558
1.05421
1.05005
1.05446
1.12694
1.62331
2.72126
3.22239
3.43951
3.56198
3.52643
3.45211
3.42566
3.37654
3.27153
3.18234
3.15687
3.12836
3.19021
3.77037
5.37366
7.02763
7.19772
7.1856
7.12859
7.09336
6.96974
6.81169
6.64158
6.41131
6.17435
6.00835
5.91804
5.85212
5.81406
5.74942
5.66245
5.52289
5.27998
5.08856
5.01347
4.96199
4.91108
4.85673
4.79764
4.72396
4.60971
4.452
4.33255
4.26282
4.20336
4.14458
4.08101
4.00354
3.91492
3.83265
3.77084
3.72256
3.67774
3.63195
3.57855
3.51136
3.4252
3.33224
3.25984
3.20705
3.16191
3.12341
3.09579
3.07841
3.06508
3.03292
2.96681
2.86619
2.78085
2.73341
2.69848
2.66775
2.64125
2.61329
2.57654
2.52622
2.47714
2.44435
2.42206
2.40179
2.3766
2.3395
2.27763
2.21322
2.18273
2.16862
2.16012
2.15106
2.13784
2.11985
2.09402
2.05279
1.99395
1.94564
1.9287
1.93958
2.05007
2.30873
2.69722
3.01703
3.2221
3.25658
3.24672
3.19506
3.1249
3.076
3.05507
3.03669
3.01252
2.97981
2.94569
2.90449
2.86245
2.82408
2.82154
2.85024
2.96026
3.18208
3.5127
3.82327
4.08769
4.19614
4.18544
4.17612
4.14827
4.0975
4.06779
4.03491
3.98821
3.93227
3.88478
3.83926
3.7861
3.75968
3.74565
3.71603
3.68143
3.64858
3.61862
3.59027
3.55539
3.4979
3.42281
3.36933
3.34279
3.32579
3.304
3.76998
3.76188
3.75197
3.69253
3.52621
3.27941
2.99379
2.65868
2.39453
2.17402
1.9565
1.74864
1.61244
1.49683
1.3631
1.26372
1.21312
1.15634
1.06697
1.03989
1.02503
0.996686
0.974501
0.971107
0.966215
0.964927
0.967586
0.975185
0.991018