/*--------------------------------*- C++ -*----------------------------------*\
  =========                 |
  \\      /  F ield         | OpenFOAM: The Open Source CFD Toolbox
   \\    /   O peration     | Website:  https://openfoam.org
    \\  /    A nd           | Version:  7
     \\/     M anipulation  |
\*---------------------------------------------------------------------------*/
FoamFile
{
    version     2.0;
    format      ascii;
    class       volScalarField;
    location    "1.7";
    object      T;
}
// * * * * * * * * * * * * * * * * * * * * * * * * * * * * * * * * * * * * * //

dimensions      [0 0 0 1 0 0 0];

internalField   nonuniform List<scalar> 
18432
(
1
1
1
1
1
1
1
1
1
1
1
1
1
1
1
1
1
1
1
1
1
1
1
1
1
1
1
1
1
1
1
1
1
1
1
1
1
1
1
1
1
1
1
1
1
1
1
1
1
1
1
1
1
1
1
1
1
1
1
1
1
1
1
1
1
1
1
1
1
1
1
1
1
1
1
1
1
1
1
1
1
1
1
1
1
1
1
1
1
1
1
1
1
1
1
1
1
1
1
1
1
1
1
1
1
1
1
1
1
1
1
1
1
1
1
1
1
1
1
1
1
1
1
1
1
1
1
1
1
1
1
1
1
1
1
1
1
1
1
1
1
1
1
1
1
1
1
1
1
1
1
1
1
1
1
1
1
1
1
1
1
1
1
1
1
1
1
1
1
1
1
1
1
1
1
1
1
1
1
1
1
1
1
1
1
1
1
1
1
1
1
1
1
1
1
1
1
1
1
1
1
1
1
1
1
1
1
1
1
1
1
1
1
1
1
1
1
1
1
1
1
1
1
1
1
1
1
1
1
1
1
1
1
1
1
1
1
1
1
1
1
1
1
1
1
1
1
1
1
1
1
1
1
1
1
1
1
1
1
1
1
1
1
1
1
1
1
1
1
1
1
1
1
1
1
1
1
1
1
1
1
1
1
1
1
1
1
1
1
1
1
1
1
1
1
1
1
1
1
1
1
1
1
1
1
1
1
1
1
1
1
1
1
1
1
1
1
1
1
1
1
1
1
1
1
1
1
1
1
1
1
1
1
1
1
1
1
1
1
1
1
1
1
1
1
1
1
1
1
1
1
1
1
1
1
1
1
1
1
1
1
1
1
1
1
1
1
1
1
1
1
1
1
1
1
1
1
1
1
1
1
1
1
1
1
1
1
1
1
1
1
1
1
1
1
1
1
1
1
1
1
1
1
1
1
1
1
1
1
1
1
1
1
1
1
1
1
1
1
1
1
1
1
1
1
1
1
1
1
1
1
1
1
1
1
1
1
1
1
1
1
1
1
1
1
1
1
1
1
1
1
1
1
1
1
1
1
1
1
1
1
1
1
1
1
1
1
1
1
1
1
1
1
1
1
1
1
1
1
1
1
1
1
1
1
1
1
1
1
1
1
1
1
1
1
1
1
1
1
1
1
1
1
1
1
1
1
1
1
1
1
1
1
1
1
1
1
1
1
1
1
1
1
1
1
1
1
1
1
1
1
1
1
1
1
1
1
1
1
1
1
1
1
1
1
1
1
1
1
1
1
1
1
1
1
1
1
1
1
1
1
1
1
1
1
1
1
1
1
1
1
1
1
1
1
1
1
1
1
1
1
1
1
1
1
1
1
1
1
1
1
1
1
1
1
1
1
1
1
1
1
1
1
1
1
1
1
1
1
1
1
1
1
1
1
1
1
1
1
1
1
1
1
1
1
1
1
1
1
1
1
1
1
1
1
1
1
1
1
1
1
1
1
1
1
1
1
1
1
1
1
1
1
1
1
1
1
1
1
1
1
1
1
1
1
1
1
1
1
1
1
1
1
1
1
1
1
1
1
1
1
1
1
1
1
1
1
1
1
1
1
1
1
1
1
1
1
1
1
1
1
1
1
1
1
1
1
1
1
1
1
1
1
1
1
1
1
1
1
1
1
1
1
1
1
1
1
1
1
1
1
1
1
1
1
1
1
1
1
1
1
1
1
1
1
1
1
1
1
1
1
1
1
1
1
1
1
1
1
1
1
1
1
1
1
1
1
1
1
1
1
1
1
1
1
1
1
1
1
1
1
1
1
1
1
1
1
1
1
1
1
1
1
1
1
1
1
1
1
1
1
1
1
1
1
1
1
1
1
1
1
1
1
1
1
1
1
1
1
1
1
1
1
1
1
1
1
1
1
1
1
1
1
1
1
1
1
1
1
1
1
1
1
1
1
1
1
1
1
1
1
1
1
1
1
1
1
1
1
1
1
1
1
1
1
1
1
1
1
1
1
1
1
1
1
1
1
1
1
1
1
1
1
1
1
1
1
1
1
1
1
1
1
1
1
1
1
1
1
1
1
1
1
1
1
1
1
1
1
1
1
1
1
1
1
1
1
1
1
1
1
1
1
1
1
1
1
1
1
1
1
1
1
1
1
1
1
1
1
1
1
1
1
1
1
1
1
1
1
1
1
1
1
1
1
1
1
1
1
1
1
1
1
1
1
1
1
1
1
1
1
1
1
1
1
1
1
1
1
1
1
1
1
1
1
1
1
1
1
1
1
1
1
1
1
1
1
1
1
1
1
1
1
1
1
1
1
1
1
1
1
1
1
1
1
1
1
1
1
1
1
1
1
1
1
1
1
1
1
1
1
1
1
1
1
1
1
1
1
1
1
1
1
1
1
1
1
1
1
1
1
1
1
1
1
1
1
1
1
1
1
1
1
1
1
1
1
1
1
1
1
1
1
1
1
1
1
1
1
1
1
1
1
1
1
1
1
1
1
1
1
1
1
1
1
1
1
1
1
1
1
1
1
1
1
1
1
1
1
1
1
1
1
1
1
1
1
1
1
1
1
1
1
1
1
1
1
1
1
1
1
1
1
1
1
1
1
1
1
1
1
1
1
1
1
1
1
1
1
1
1
1
1
1
1
1
1
1
1
1
1
1
1
1
1
1
1
1
1
1
1
1
1
1
1
1
1
1
1
1
1
1
1
1
1
1
1
1
1
1
1
1
1
1
1
1
1
1
1
1
1
1
1
1
1
1
1
1
1
1
1
1
1
1
1
1
1
1
1
1
1
1
1
1
1
1
1
1
1
1
1
1
1
1
1
1
1
1
1
1
1
1
1
1
1
1
1
1
1
1
1
1
1
1
1
1
1
1
1
1
1
1
1
1
1
1
1
1
1
1
1
1
1
1
1
1
1
1
1
1
1
1
1
1
1
1
1
1
1
1
1
1
1
1
1
1
1
1
1
1
1
1
1
1
1
1
1
1
1
1
1
1
1
1
1
1
1
1
1
1
1
1
1
1
1
1
1
1
1
1
1
1
1
1
1
1
1
1
1
1
1
1
1
1
1
1
1
1
1
1
1
1
1
1
1
1
1
1
1
1
1
1
1
1
1
1
1
1
1
1
1
1
1
1
1
1
1
1
1
1
1
1
1
1
1
1
1
1
1
1
1
1
1
1
1
1
1
1
1
1
1
1
1
1
1
1
1
1
1
1
1
1
1
1
1
1
1
1
1
1
1
1
1
1
1
1
1
1
1
1
1
1
1
1
1
1
1
1
1
1
1
1
1
1
1
1
1
1
1
1
1
1
1
1
1
1
1
1
1
1
1
1
1
1
1
1
1
1
1
1
1
1
1
1
1
1
1
1
1
1
1
1
1
1
1
1
1
1
1
1
1
1
1
1
1
1
1
1
1
1
1
1
1
1
1
1
1
1
1
1
1
1
1
1
1
1
1
1
1
1
1
1
1
1
1
1
1
1
1
1
1
1
1
1
1
1
1
1
1
1
1
1
1
1
1
1
1
1
1
1
1
1
1
1
1
1
1
1
1
1
1
1
1
1
1
1
1
1
1
1
1
1
1
1
1
1
1
1
1
1
1
1
1
1
1
1
1
1
1
1
1
1
1
1
1
1
1
1
1
1
1
1
1
1
1
1
1
1
1
1
1
1
1
1
1
1
1
1
1
1
1
1
1
1
1
1
1
1
1
1
1
1
1
1
1
1
1
1
1
1
1
1
1
1
1
1
1
1
1
1
1
1
1
1
1
1
1
1
1
1
1
1
1
1
1
1
1
1
1
1
1
1
1
1
1
1
1
1
1
1
1
1
1
1
1
1
1
1
1
1
1
1
1
1
1
1
1
1
1
1
1
1
1
1
1
1
1
1
1
1
1
1
1
1
1
1
1
1
1
1
1
1
1
1
1
1
1
1
1
1
1
1
1
1
1
1
1
1
1
1
1
1
1
1
1
1
1
1
1
1
1
1
1
1
1
1
1
1
1
1
1
1
1
1
1
1
1
1
1
1
1
1
1
1
1
1
1
1
1
1
1
1
1
1
1
1
1
1
1
1
1
1
1
1
1
1
1
1
1
1
1
1
1
1
1
1
1
1
1
1
1
1
1
1
1
1
1
1
1
1
1
1
1
1
1
1
1
1
1
1
1
1
1
1
1
1
1
1
1
1
1
1
1
1
1
1
1
1
1
1
1
1
1
1
1
1
1
1
1
1
1
1
1
1
1
1
1
1
1
1
1
1
1
1
1
1
1
1
1
1
1
1
1
1
1
1
1
1
1
1
1
1
1
1
1
1
1
1
1
1
1
1
1
1
1
1
1
1
1
1
1
1
1
1
1
1
1
1
1
1
1
1
1
1
1
1
1
1
1
1
1
1
1
1
1
1
1
1
1
1
1
1
1
1
1
1
1
1
1
1
1
1
1
1
1
1
1
1
1
1
1
1
1
1
1
1
1
1
1
1
1
1
1
1
1
1
1
1
1
1
1
1
1
1
1
1
1
1
1
1
1
1
1
1
1
1
1
1
1
1
1
1
1
1
1
1
1
1
1
1
1
1
1
1
1
1
1
1
1
1
1
1
1
1
1
1
1
1
1
1
1
1
1
1
1
1
1
1
1
1
1
1
1
1
1
1
1
1
1
1
1
1
1
1
1
1
1
1
1
1
1
1
1
1
1
1
1
1
1
1
1
1
1
1
1
1
1
1
1
1
1
1
1
1
1
1
1
1
1
1
1
1
1
1
1
1
1
1
1
1
1
1
1
1
1
1
1
1
1
1
1
1
1
1
1
1
1
1
1
1
1
1
1
1
1
1
1
1
1
1
1
1
1
1
1
1
1
1
1
1
1
1
1
1
1
1
1
1
1
1
1
1
1
1
1
1
1
1
1
1
1
1
1
1
1
1
1
1
1
1
1
1
1
1
1
1
1
1
1
1
1
1
1
1
1
1
1
1
1
1
1
1
1
1
1
1
1
1
1
1
1
1
1
1
1
1
1
1
1
1
1
1
1
1
1
1
1
1
1
1
1
1
1
1
1
1
1
1
1
1
1
1
1
1
1
1
1
1
1
1
1
1
1
1
1
1
1
1
1
1
1
1
1
1
1
1
1
1
1
1
1
1
1
1
1
1
1
1
1
1
1
1
1
1
1
1
1
1
1
1
1
1
1
1
1
1
1
1
1
1
1
1
1
1
1
1
1
1
1
1
1
1
1
1
1
1
1
1
1
1
1
1
1
1
1
1
1
1
1
1
1
1
1
1
1
1
1
1
1
1
1
1
1
1
1
1
1
1
1
1
1
1
1
1
1
1
1
1
1
1
1
1
1
1
1
1
1
1
1
1
1
1
1
1
1
1
1
1
1
1
1
1
1
1
1
1
1
1
1
1
1
1
1
1
1
1
1
1
1
1
1
1
1
1
1
1
1
1
1
1
1
1
1
1
1
1
1
1
1
1
1
1
1
1
1
1
1
1
1
1
1
1
1
1
1
1
1
1
1
1
1
1
1
1
1
1
1
1
1
1
1
1
1
1
1
1
1
1
1
1
1
1
1
1
1
1
1
1
1
1
1
1
1
1
1
1
1
1
1
1
1
1
1
1
1
1
1
1
1
1
1
1
1
1
1
1
1
1
1
1
1
1
1
1
1
1
1
1
1
1
1
1
1
1
1
1
1
1
1
1
1
1
1
1
1
1
1
1
1
1
1
1
1
1
1
1
1
1
1
1
1
1
1
1
1
1
1
1
1
1
1
1
1
1
1
1
1
1
1
1
1
1
1
1
1
1
1
1
1
1
1
1
1
1
1
1
1
1
1
1
1
1
1
1
1
1
1
1
1
1
1
1
1
1
1
1
1
1
1
1
1
1
1
1
1
1
1
1
1
1
1
1
1
1
1
1
1
1
1
1
1
1
1
1
1
1
1
1
1
1
1
1
1
1
1
1
1
1
1
1
1
1
1
1
1
1
1
1
1
1
1
1
1
1
1
1
1
1
1
1
1
1
1
1
1
1
1
1
1
1
1
1
1
1
1
1
1
1
1
1
1
1
1
1
1
1
1
1
1
1
1
1
1
1
1
1
1
1
1
1
1
1
1
1
1
1
1
1
1
1
1
1
1
1
1
1
1
1
1
1
1
1
1
1
1
1
1
1
1
1
1
1
1
1
1
1
1
1
1
1
1
1
1
1
1
1
1
1
1
1
1
1
1
1
1
1
1
1
1
1
1
1
1
1
1
1
1
1
1
1
1
1
1
1
1
1
1
1
1
1
1
1
1
1
1
1
1
1
1
1
1
1
1
1
1
1
1
1
1
1
1
1
1
1
1
1
1
1
1
1
1
1
1
1
1
1
1
1
1
1
1
1
1
1
1
1
1
1
1
1
1
1
1
1
1
1
1
1
1
1
1
1
1
1
1
1
1
1
1
1
1
1
1
1
1
1
1
1
1
1
1
1
1
1
1
1
1
1
1
1
1
1
1
1
1
1
1
1
1
1
1
1
1
1
1
1
1
1
1
1
1
1
1
1
1
1
1
1
1
1
1
1
1
1
1
1
1
1
1
1
1
1
1
1
1
1
1
1
1
1
1
1
1
1
1
1
1
1
1
1
1
1
1
1
1
1
1
1
1
1
1
1
1
1
1
1
1
1
1
1
1
1
1
1
1
1
1
1
1
1
1
1
1
1
1
1
1
1
1
1
1
1
1
1
1
1
1
1
1
1
1
1
1
1
1
1
1
1
1
1
1
1
1
1
1
1
1
1
1
1
1
1
1
1
1
1
1
1
1
1
1
1
1
1
1
1
1
1
1
1
1
1
1
1
1
1
1
1
1
1
1
1
1
1
1
1
1
1
1
1
1
1
1
1
1
1
1
1
1
1
1
1
1
1
1
1
1
1
1
1
1
1
1
1
1
1
1
1
1
1
1
1
1
1
1
1
1
1
1
1
1
1
1.07776
1.18042
1.28742
1.37749
1.47487
1.55941
1.61768
1.6687
1.69631
1.69098
1.66091
1.61239
1.57054
1.53954
1.52681
1.51491
1.51325
1.51576
1.52045
1.5257
1.53073
1.53335
1.53478
1.53575
1.53709
1.53899
1.54091
1.54181
1.54194
1.54225
1.54357
1.54567
1.54694
1.54716
1.54712
1.54655
1.54534
1.5445
1.54433
1.54444
1.54473
1.54491
1.54524
1.54543
1.54556
1.54557
1.54541
1.54547
1.00076
1.00484
1.02436
1.06988
1.12833
1.2156
1.30015
1.3797
1.45145
1.5068
1.52999
1.55481
1.56859
1.56369
1.55387
1.54598
1.54063
1.53596
1.53289
1.53312
1.53442
1.53701
1.53998
1.54192
1.54305
1.54342
1.5442
1.54468
1.54455
1.54452
1.54502
1.54604
1.54697
1.54762
1.54772
1.54747
1.5469
1.54649
1.54649
1.54673
1.54723
1.54782
1.54813
1.54813
1.54804
1.5478
1.54723
1.54754
1
0.999993
1.00002
1.00003
1.00046
1.0046
1.02175
1.07411
1.18359
1.34306
1.50215
1.57951
1.6253
1.62429
1.61489
1.59765
1.57898
1.55743
1.54585
1.5459
1.54712
1.54951
1.5533
1.55508
1.55537
1.55557
1.55539
1.55545
1.55541
1.55518
1.55477
1.55467
1.55466
1.5545
1.55402
1.55328
1.55249
1.5521
1.55202
1.55219
1.5528
1.55365
1.55409
1.55403
1.55369
1.55324
1.55247
1.55319
1
1
1
1
0.999999
1
1.00001
1.00003
1.0021
1.02591
1.15458
1.33016
1.51551
1.58834
1.60681
1.60426
1.59203
1.58763
1.58267
1.5749
1.57211
1.56835
1.56588
1.56513
1.56592
1.56672
1.56755
1.56892
1.56962
1.56948
1.56907
1.56844
1.56797
1.56746
1.56658
1.5656
1.56455
1.56351
1.56302
1.563
1.56322
1.56344
1.56332
1.56266
1.56165
1.56066
1.55973
1.56062
1
1
1
1
1
1
1
1
1
0.99997
1.00083
1.01651
1.10935
1.30207
1.45629
1.58995
1.61419
1.61843
1.61331
1.60546
1.59084
1.58145
1.57494
1.57108
1.57092
1.57159
1.57289
1.57501
1.57681
1.57764
1.57833
1.57896
1.57906
1.57893
1.57831
1.5775
1.57643
1.57533
1.57482
1.57481
1.57492
1.57483
1.57416
1.57298
1.57158
1.57024
1.569
1.56982
1
1
1
1
1
1
1
1
1
0.999999
0.999999
0.999981
1.00025
1.01227
1.07769
1.25866
1.43478
1.55075
1.60857
1.60636
1.5997
1.59459
1.58806
1.58277
1.57971
1.57839
1.57719
1.57745
1.5789
1.58062
1.58245
1.58435
1.58467
1.58447
1.58391
1.58311
1.58222
1.58148
1.58129
1.58139
1.58144
1.58105
1.58009
1.57897
1.57787
1.57706
1.57623
1.57709
1
1
1
1
1
1
1
1
1
1
1
0.999999
0.999999
0.999987
1.00014
1.0068
1.07465
1.21328
1.40353
1.50512
1.57899
1.59802
1.59789
1.59433
1.58947
1.58592
1.58159
1.57877
1.57886
1.58015
1.58216
1.58469
1.58546
1.58533
1.58478
1.58398
1.58346
1.58327
1.5833
1.58378
1.5839
1.58361
1.58292
1.58233
1.58197
1.58178
1.58133
1.58187
1
1
1
1
1
1
1
1
1
1
1
1
1
0.999999
0.999999
0.999989
1.0002
1.00422
1.05509
1.19235
1.36851
1.49009
1.54008
1.57411
1.58225
1.58257
1.58009
1.578
1.57863
1.57921
1.58008
1.58083
1.58197
1.58265
1.5825
1.5824
1.58252
1.5829
1.58377
1.58451
1.58466
1.58448
1.58398
1.58359
1.58353
1.58349
1.58334
1.58339
1
1
1
1
1
1
1
1
1
1
1
1
1
1
1
0.999999
0.999999
0.999993
1.00014
1.00427
1.04036
1.18458
1.33677
1.48135
1.53021
1.55121
1.56176
1.56828
1.57172
1.57119
1.57142
1.57258
1.57404
1.57567
1.57736
1.57867
1.57992
1.58113
1.58224
1.58303
1.58314
1.58315
1.58315
1.58305
1.58284
1.58284
1.58288
1.58279
1
1
1
1
1
1
1
1
1
1
1
1
1
1
1
1
1
0.999999
0.999999
0.999995
1.00008
1.00489
1.03703
1.15904
1.33048
1.45713
1.53479
1.54959
1.55897
1.56214
1.56238
1.56387
1.56515
1.56661
1.56853
1.57098
1.57344
1.57551
1.57701
1.57797
1.57841
1.57889
1.5796
1.58009
1.58033
1.58057
1.58108
1.58098
1
1
1
1
1
1
1
1
1
1
1
1
1
1
1
1
1
1
1
1
1
0.999995
1.00009
1.00342
1.04279
1.14725
1.32403
1.44579
1.52624
1.55418
1.55867
1.5607
1.56239
1.56266
1.56338
1.56523
1.56683
1.56857
1.57037
1.57178
1.57249
1.57309
1.57387
1.57443
1.57483
1.57533
1.57636
1.57653
1
1
1
1
1
1
1
1
1
1
1
1
1
1
1
1
1
1
1
1
1
0.999999
1
0.999995
1.00017
1.003
1.04266
1.16073
1.32675
1.44387
1.51173
1.54405
1.55551
1.55866
1.56259
1.56358
1.56349
1.56394
1.56543
1.56717
1.56826
1.5688
1.56907
1.56911
1.56933
1.57008
1.57143
1.57185
1
1
1
1
1
1
1
1
1
1
1
1
1
1
1
1
1
1
1
1
1
1
1
0.999999
1
0.999996
1.00025
1.00447
1.04215
1.17957
1.33802
1.46558
1.50757
1.53145
1.55086
1.55597
1.55535
1.55657
1.55883
1.56111
1.56285
1.56335
1.5634
1.5635
1.56405
1.56514
1.56688
1.56756
1
1
1
1
1
1
1
1
1
1
1
1
1
1
1
1
1
1
1
1
1
1
1
1
1
0.999999
1
0.999997
1.00027
1.00764
1.05095
1.20156
1.36024
1.49144
1.53004
1.53851
1.54281
1.54665
1.55083
1.55363
1.55535
1.55671
1.55765
1.55846
1.55946
1.56036
1.56212
1.56307
1
1
1
1
1
1
1
1
1
1
1
1
1
1
1
1
1
1
1
1
1
1
1
1
1
1
1
1
0.999999
1
1.00042
1.01191
1.07367
1.24023
1.39925
1.50305
1.54727
1.55011
1.55169
1.5535
1.55358
1.55428
1.55525
1.55574
1.55647
1.55746
1.55919
1.55994
1
1
1
1
1
1
1
1
1
1
1
1
1
1
1
1
1
1
1
1
1
1
1
1
1
1
1
1
1
1
0.999999
1.00003
1.00102
1.02002
1.11806
1.29075
1.43721
1.51463
1.5472
1.55509
1.55638
1.55864
1.55824
1.55765
1.55762
1.55793
1.55867
1.55892
1
1
1
1
1
1
1
1
1
1
1
1
1
1
1
1
1
1
1
1
1
1
1
1
1
1
1
1
1
1
1
1
0.999999
1.00011
1.003
1.03781
1.18032
1.36262
1.47988
1.51781
1.54125
1.5546
1.55373
1.55432
1.55548
1.55686
1.55815
1.55835
1
1
1
1
1
1
1
1
1
1
1
1
1
1
1
1
1
1
1
1
1
1
1
1
1
1
1
1
1
1
1
1
1
1
1
1.00044
1.00981
1.07651
1.2546
1.43083
1.52876
1.53766
1.54249
1.5464
1.55043
1.55409
1.55616
1.55622
1
1
1
1
1
1
1
1
1
1
1
1
1
1
1
1
1
1
1
1
1
1
1
1
1
1
1
1
1
1
1
1
1
1
1
0.999999
1.00003
1.00171
1.02956
1.15282
1.35337
1.48698
1.54994
1.55494
1.55593
1.55769
1.55722
1.55597
1
1
1
1
1
1
1
1
1
1
1
1
1
1
1
1
1
1
1
1
1
1
1
1
1
1
1
1
1
1
1
1
1
1
1
1
1
1
1.00029
1.0079
1.08453
1.26095
1.43698
1.51796
1.55331
1.5607
1.56056
1.55973
1
1
1
1
1
1
1
1
1
1
1
1
1
1
1
1
1
1
1
1
1
1
1
1
1
1
1
1
1
1
1
1
1
1
1
1
1
1
1
1.00004
1.0022
1.03237
1.18517
1.39169
1.50545
1.53068
1.54683
1.55383
1
1
1
1
1
1
1
1
1
1
1
1
1
1
1
1
1
1
1
1
1
1
1
1
1
1
1
1
1
1
1
1
1
1
1
1
1
1
1
1
1
1.00053
1.01393
1.1135
1.31592
1.48444
1.54288
1.54985
1
1
1
1
1
1
1
1
1
1
1
1
1
1
1
1
1
1
1
1
1
1
1
1
1
1
1
1
1
1
1
1
1
1
1
1
1
1
1
1
1
1
1.0001
1.00542
1.06211
1.25538
1.43844
1.54084
1
1
1
1
1
1
1
1
1
1
1
1
1
1
1
1
1
1
1
1
1
1
1
1
1
1
1
1
1
1
1
1
1
1
1
1
1
1
1
1
1
1
1
1.00003
1.00156
1.03712
1.20241
1.42172
1
1
1
1
1
1
1
1
1
1
1
1
1
1
1
1
1
1
1
1
1
1
1
1
1
1
1
1
1
1
1
1
1
1
1
1
1
1
1
1
1
1
1
1
1
1.00088
1.02106
1.13758
1
1
1
1
1
1
1
1
1
1
1
1
1
1
1
1
1
1
1
1
1
1
1
1
1
1
1
1
1
1
1
1
1
1
1
1
1
1
1
1
1
1
1
1
1
1
1.00033
1.00566
1
1
1
1
1
1
1
1
1
1
1
1
1
1
1
1
1
1
1
1
1
1
1
1
1
1
1
1
1
1
1
1
1
1
1
1
1
1
1
1
1
1
1
1
1
1
1
0.999937
1
1
1
1
1
1
1
1
1
1
1
1
1
1
1
1
1
1
1
1
1
1
1
1
1
1
1
1
1
1
1
1
1
1
1
1
1
1
1
1
1
1
1
1
1
1
1
0.999979
1
1
1
1
1
1
1
1
1
1
1
1
1
1
1
1
1
1
1
1
1
1
1
1
1
1
1
1
1
1
1
1
1
1
1
1
1
1
1
1
1
1
1
1
1
1
1
0.999997
1
1
1
1
1
1
1
1
1
1
1
1
1
1
1
1
1
1
1
1
1
1
1
1
1
1
1
1
1
1
1
1
1
1
1
1
1
1
1
1
1
1
1
1
1
1
1
1
1
1
1
1
1
1
1
1
1
1
1
1
1
1
1
1
1
1
1
1
1
1
1
1
1
1
1
1
1
1
1
1
1
1
1
1
1
1
1
1
1
1
1
1
1
1
1
1
1
1
1
1
1
1
1
1
1
1
1
1
1
1
1
1
1
1
1
1
1
1
1
1
1
1
1
1
1
1
1
1
1
1
1
1
1
1
1
1
1
1
1
1
1
1
1
1
1
1
1
1
1
1
1
1
1
1
1
1
1
1
1
1
1
1
1
1
1
1
1
1
1
1
1
1
1
1
1
1
1
1
1
1
1
1
1
1
1
1
1
1
1
1
1
1
1
1
1
1
1
1
1
1
1
1
1
1
1
1
1
1
1
1
1
1
1
1
1
1
1
1
1
1
1
1
1
1
1
1
1
1
1
1
1
1
1
1
1
1
1
1
1
1
1
1
1
1
1
1
1
1
1
1
1
1
1
1
1
1
1
1
1
1
1
1
1
1
1
1
1
1
1
1
1
1
1
1
1
1
1
1
1
1
1
1
1
1
1
1
1
1
1
1
1
1
1
1
1
1
1
1
1
1
1
1
1
1
1
1
1
1
1
1
1
1
1
1
1
1
1
1
1
1
1
1
1
1
1
1
1
1
1
1
1
1
1
1
1
0.999997
1
1
1
1
1
1
1
1
1
1
1
1
1
1
1
1
1
1
1
1
1
1
1
1
1
1
1
1
1
1
1
1
1
1
1
1
1
1
1
1
1
1
1
1
1
1
1
0.999979
1
1
1
1
1
1
1
1
1
1
1
1
1
1
1
1
1
1
1
1
1
1
1
1
1
1
1
1
1
1
1
1
1
1
1
1
1
1
1
1
1
1
1
1
1
1
1
0.999937
1
1
1
1
1
1
1
1
1
1
1
1
1
1
1
1
1
1
1
1
1
1
1
1
1
1
1
1
1
1
1
1
1
1
1
1
1
1
1
1
1
1
1
1
1
1
1.00033
1.00566
1
1
1
1
1
1
1
1
1
1
1
1
1
1
1
1
1
1
1
1
1
1
1
1
1
1
1
1
1
1
1
1
1
1
1
1
1
1
1
1
1
1
1
1
1
1.00088
1.02106
1.13763
1
1
1
1
1
1
1
1
1
1
1
1
1
1
1
1
1
1
1
1
1
1
1
1
1
1
1
1
1
1
1
1
1
1
1
1
1
1
1
1
1
1
1
1.00003
1.00156
1.03711
1.20238
1.4218
1
1
1
1
1
1
1
1
1
1
1
1
1
1
1
1
1
1
1
1
1
1
1
1
1
1
1
1
1
1
1
1
1
1
1
1
1
1
1
1
1
1
1.0001
1.00542
1.06212
1.25533
1.43845
1.54087
1
1
1
1
1
1
1
1
1
1
1
1
1
1
1
1
1
1
1
1
1
1
1
1
1
1
1
1
1
1
1
1
1
1
1
1
1
1
1
1
1
1.00053
1.01393
1.11352
1.31592
1.48441
1.54289
1.54988
1
1
1
1
1
1
1
1
1
1
1
1
1
1
1
1
1
1
1
1
1
1
1
1
1
1
1
1
1
1
1
1
1
1
1
1
1
1
1
1.00004
1.0022
1.03237
1.18516
1.3917
1.50542
1.53066
1.54685
1.55386
1
1
1
1
1
1
1
1
1
1
1
1
1
1
1
1
1
1
1
1
1
1
1
1
1
1
1
1
1
1
1
1
1
1
1
1
1
1
1.00029
1.0079
1.08453
1.26094
1.437
1.51795
1.55331
1.5607
1.56056
1.55973
1
1
1
1
1
1
1
1
1
1
1
1
1
1
1
1
1
1
1
1
1
1
1
1
1
1
1
1
1
1
1
1
1
1
1
0.999999
1.00003
1.00171
1.02956
1.15282
1.35337
1.48698
1.54994
1.55494
1.55593
1.55769
1.55722
1.55597
1
1
1
1
1
1
1
1
1
1
1
1
1
1
1
1
1
1
1
1
1
1
1
1
1
1
1
1
1
1
1
1
1
1
1
1.00044
1.00981
1.07651
1.2546
1.43083
1.52875
1.53766
1.54249
1.5464
1.55043
1.55409
1.55616
1.55622
1
1
1
1
1
1
1
1
1
1
1
1
1
1
1
1
1
1
1
1
1
1
1
1
1
1
1
1
1
1
1
1
0.999999
1.00011
1.003
1.03781
1.18033
1.36261
1.47988
1.51781
1.54125
1.5546
1.55373
1.55432
1.55548
1.55686
1.55815
1.55835
1
1
1
1
1
1
1
1
1
1
1
1
1
1
1
1
1
1
1
1
1
1
1
1
1
1
1
1
1
1
0.999999
1.00003
1.00102
1.02002
1.11806
1.29075
1.43721
1.51463
1.5472
1.55509
1.55638
1.55864
1.55824
1.55765
1.55762
1.55793
1.55867
1.55892
1
1
1
1
1
1
1
1
1
1
1
1
1
1
1
1
1
1
1
1
1
1
1
1
1
1
1
1
0.999999
1
1.00042
1.01191
1.07367
1.24023
1.39925
1.50305
1.54727
1.55011
1.55169
1.5535
1.55358
1.55428
1.55525
1.55574
1.55647
1.55746
1.55919
1.55994
1
1
1
1
1
1
1
1
1
1
1
1
1
1
1
1
1
1
1
1
1
1
1
1
1
0.999999
1
0.999997
1.00027
1.00764
1.05095
1.20156
1.36024
1.49144
1.53005
1.53851
1.54281
1.54665
1.55083
1.55363
1.55535
1.55671
1.55765
1.55846
1.55946
1.56036
1.56212
1.56307
1
1
1
1
1
1
1
1
1
1
1
1
1
1
1
1
1
1
1
1
1
1
1
0.999999
1
0.999996
1.00025
1.00447
1.04215
1.17957
1.33802
1.46558
1.50757
1.53145
1.55086
1.55597
1.55535
1.55657
1.55883
1.56111
1.56285
1.56335
1.5634
1.5635
1.56405
1.56514
1.56688
1.56756
1
1
1
1
1
1
1
1
1
1
1
1
1
1
1
1
1
1
1
1
1
0.999999
1
0.999995
1.00017
1.003
1.04266
1.16073
1.32675
1.44387
1.51173
1.54405
1.55551
1.55866
1.56259
1.56358
1.56349
1.56394
1.56543
1.56717
1.56826
1.5688
1.56907
1.56911
1.56933
1.57008
1.57143
1.57185
1
1
1
1
1
1
1
1
1
1
1
1
1
1
1
1
1
1
1
1
1
0.999995
1.00009
1.00342
1.04279
1.14725
1.32403
1.44579
1.52624
1.55418
1.55867
1.5607
1.56239
1.56266
1.56338
1.56523
1.56683
1.56857
1.57037
1.57178
1.57249
1.57309
1.57387
1.57443
1.57483
1.57533
1.57636
1.57653
1
1
1
1
1
1
1
1
1
1
1
1
1
1
1
1
1
0.999999
0.999999
0.999995
1.00008
1.00489
1.03703
1.15904
1.33048
1.45713
1.53479
1.54959
1.55897
1.56214
1.56238
1.56386
1.56515
1.56661
1.56853
1.57098
1.57344
1.57551
1.57701
1.57797
1.57841
1.57889
1.5796
1.58009
1.58033
1.58057
1.58108
1.58098
1
1
1
1
1
1
1
1
1
1
1
1
1
1
1
0.999999
0.999999
0.999993
1.00014
1.00427
1.04036
1.18458
1.33677
1.48135
1.53021
1.55121
1.56176
1.56828
1.57172
1.57119
1.57142
1.57258
1.57404
1.57567
1.57736
1.57867
1.57992
1.58113
1.58224
1.58303
1.58314
1.58315
1.58315
1.58305
1.58284
1.58284
1.58288
1.58279
1
1
1
1
1
1
1
1
1
1
1
1
1
0.999999
0.999999
0.999989
1.0002
1.00422
1.05509
1.19235
1.36851
1.49009
1.54008
1.57411
1.58225
1.58257
1.58009
1.578
1.57863
1.57921
1.58008
1.58083
1.58197
1.58265
1.5825
1.5824
1.58252
1.5829
1.58377
1.58451
1.58466
1.58448
1.58398
1.58359
1.58353
1.58349
1.58334
1.58339
1
1
1
1
1
1
1
1
1
1
1
0.999999
0.999999
0.999987
1.00014
1.0068
1.07465
1.21328
1.40353
1.50512
1.57899
1.59802
1.59789
1.59433
1.58947
1.58592
1.58159
1.57877
1.57886
1.58015
1.58216
1.58469
1.58546
1.58533
1.58478
1.58398
1.58346
1.58327
1.5833
1.58378
1.5839
1.58361
1.58292
1.58233
1.58197
1.58178
1.58133
1.58187
1
1
1
1
1
1
1
1
1
0.999999
0.999999
0.999981
1.00025
1.01227
1.07769
1.25866
1.43478
1.55075
1.60857
1.60636
1.5997
1.59459
1.58806
1.58277
1.57971
1.57839
1.57719
1.57745
1.5789
1.58062
1.58245
1.58435
1.58467
1.58447
1.58391
1.58311
1.58222
1.58148
1.58129
1.58139
1.58144
1.58105
1.58009
1.57897
1.57787
1.57706
1.57623
1.57709
1
1
1
1
1
1
1
1
1
0.99997
1.00083
1.01651
1.10935
1.30207
1.45629
1.58995
1.61419
1.61843
1.61331
1.60546
1.59084
1.58145
1.57494
1.57108
1.57092
1.57159
1.57289
1.57501
1.57681
1.57764
1.57833
1.57896
1.57906
1.57893
1.57831
1.5775
1.57643
1.57533
1.57482
1.57481
1.57492
1.57483
1.57416
1.57298
1.57158
1.57024
1.569
1.56982
1
1
1
1
0.999999
1
1.00001
1.00003
1.0021
1.02591
1.15458
1.33016
1.51551
1.58834
1.60681
1.60426
1.59203
1.58763
1.58267
1.5749
1.57211
1.56835
1.56588
1.56513
1.56592
1.56672
1.56755
1.56892
1.56962
1.56948
1.56907
1.56844
1.56797
1.56746
1.56658
1.5656
1.56455
1.56351
1.56302
1.563
1.56322
1.56344
1.56332
1.56266
1.56165
1.56066
1.55973
1.56062
1
0.999993
1.00002
1.00003
1.00046
1.0046
1.02175
1.07411
1.18359
1.34306
1.50215
1.57951
1.6253
1.62429
1.61489
1.59765
1.57898
1.55743
1.54585
1.5459
1.54712
1.54951
1.5533
1.55508
1.55537
1.55557
1.55539
1.55545
1.55541
1.55518
1.55477
1.55467
1.55466
1.5545
1.55402
1.55328
1.55249
1.5521
1.55202
1.55219
1.5528
1.55365
1.55409
1.55403
1.55369
1.55324
1.55247
1.55319
1.00076
1.00484
1.02436
1.06988
1.12833
1.2156
1.30015
1.3797
1.45145
1.5068
1.52999
1.55481
1.56858
1.56369
1.55387
1.54598
1.54063
1.53596
1.53289
1.53312
1.53442
1.53701
1.53998
1.54192
1.54305
1.54342
1.5442
1.54468
1.54455
1.54452
1.54502
1.54604
1.54697
1.54762
1.54772
1.54747
1.5469
1.54649
1.54649
1.54673
1.54723
1.54782
1.54813
1.54813
1.54804
1.5478
1.54723
1.54754
1.07776
1.18042
1.28742
1.37749
1.47487
1.55941
1.61768
1.6687
1.69631
1.69098
1.66091
1.61239
1.57053
1.53954
1.52681
1.51491
1.51325
1.51576
1.52045
1.5257
1.53073
1.53335
1.53478
1.53575
1.53709
1.53899
1.54091
1.54181
1.54194
1.54225
1.54357
1.54567
1.54694
1.54716
1.54712
1.54655
1.54534
1.5445
1.54433
1.54444
1.54473
1.54491
1.54524
1.54543
1.54556
1.54557
1.54541
1.54547
1.40084
1.24383
1.11654
0.99033
0.983633
1.00892
1.00965
1.01812
1.05073
1.08452
1.0857
1.08488
1.09253
1.10785
1.11362
1.1161
1.12248
1.12261
1.12005
1.11777
1.11797
1.11768
1.11534
1.11328
1.11341
1.11314
1.11157
1.10777
1.10498
1.10477
1.10445
1.10427
1.10468
1.10516
1.10519
1.10516
1.10435
1.10322
1.10316
1.1034
1.10419
1.10458
1.10456
1.10446
1.10418
1.10366
1.10252
1.10255
1.10467
1.14894
1.34655
1.59731
1.81118
2.03924
2.23851
2.23754
2.18601
2.11027
2.08313
2.07722
2.06929
2.05847
2.04681
2.03657
2.02436
2.00657
1.9873
1.97748
1.97037
1.96305
1.95424
1.94148
1.92145
1.8983
1.88366
1.87655
1.87313
1.87237
1.86845
1.86222
1.84993
1.82805
1.80737
1.79651
1.79015
1.7856
1.78193
1.77689
1.76897
1.75396
1.73793
1.72988
1.7243
1.71879
1.71314
1.70679
1.69723
1.6789
1.65861
1.65028
1.64616
1.6429
1.64217
1.6415
1.63746
1.63159
1.61701
1.59191
1.57768
1.57323
1.57036
1.56847
1.56804
1.56572
1.56196
1.55554
1.54108
1.5256
1.52005
1.5167
1.51281
1.50806
1.50132
1.4896
1.48019
1.47698
1.4744
1.47205
1.46954
1.46661
1.46142
1.44941
1.43084
1.42214
1.41992
1.41816
1.41618
1.41438
1.41248
1.41024
1.40755
1.40205
1.39062
1.37649
1.36962
1.36616
1.36356
1.36208
1.3666
1.38659
1.44221
1.52485
1.61615
1.69189
1.74909
1.79397
1.82591
1.84343
1.83923
1.83242
1.82487
1.81441
1.80155
1.78728
1.77062
1.7624
1.75963
1.75782
1.75809
1.75928
1.75824
1.75592
1.74928
1.73245
1.71699
1.71341
1.71188
1.71132
1.7119
1.71024
1.70783
1.70458
1.69735
1.68455
1.67731
1.67448
1.6725
1.67156
1.67076
1.66895
1.66612
1.65578
1.49987
1.41526
1.34117
1.24539
1.16726
1.1411
1.10736
1.07715
1.08115
1.07501
1.05497
1.05305
1.05749
1.06709
1.07587
1.08068
1.0894
1.09382
1.09309
1.09364
1.09644
1.1017
1.1042
1.1056
1.10569
1.10539
1.10343
1.10053
1.09989
1.10005
1.09991
1.09995
1.10072
1.10129
1.1015
1.10139
1.10053
1.09944
1.09902
1.099
1.09925
1.09961
1.09971
1.09968
1.09949
1.09845
1.09876
1.1034
1.14646
1.33893
1.52994
1.57907
1.66589
1.77043
1.95086
2.08168
2.13627
2.1296
2.11074
2.0891
2.07094
2.06084
2.05273
2.04194
2.02933
2.01413
1.99579
1.9791
1.9699
1.96196
1.95293
1.94227
1.92807
1.91185
1.89661
1.88349
1.87507
1.87004
1.86485
1.85754
1.84682
1.83196
1.81681
1.80588
1.79698
1.78867
1.78202
1.77677
1.76954
1.75561
1.73928
1.73266
1.72805
1.72219
1.7159
1.70924
1.70015
1.68494
1.66627
1.65608
1.65138
1.64758
1.64352
1.63918
1.63513
1.62904
1.61768
1.59921
1.58436
1.57736
1.57383
1.5716
1.56894
1.56504
1.5602
1.55459
1.54514
1.53034
1.52039
1.51663
1.51406
1.51101
1.50565
1.49615
1.48402
1.4773
1.47403
1.47108
1.46832
1.46534
1.4614
1.4527
1.43741
1.42561
1.42151
1.41952
1.4177
1.41553
1.41248
1.40923
1.40578
1.40157
1.39299
1.38054
1.3719
1.37002
1.37245
1.38291
1.41522
1.46649
1.52216
1.56457
1.59794
1.63998
1.68195
1.7161
1.73962
1.76249
1.78028
1.79566
1.8096
1.80952
1.8038
1.79306
1.77817
1.76819
1.76375
1.76153
1.76257
1.7638
1.76162
1.75784
1.75058
1.73595
1.72107
1.7167
1.71528
1.71467
1.71423
1.7121
1.70955
1.70624
1.69966
1.68817
1.68038
1.6773
1.67415
1.67149
1.66969
1.66744
1.66472
1.65516
1.53859
1.49644
1.43474
1.36304
1.28314
1.22934
1.1812
1.12032
1.09072
1.07508
1.05003
1.04135
1.04413
1.04956
1.05028
1.05154
1.05735
1.06344
1.06551
1.06759
1.07314
1.08101
1.085
1.08652
1.0877
1.08828
1.08817
1.08808
1.08854
1.0891
1.08961
1.09073
1.09144
1.09144
1.09135
1.09075
1.08968
1.0892
1.08902
1.08907
1.08938
1.08991
1.09017
1.09014
1.08985
1.09104
1.10433
1.17149
1.33919
1.54518
1.60516
1.5947
1.59694
1.61208
1.6971
1.9023
2.09914
2.16725
2.15078
2.10638
2.07064
2.06223
2.05692
2.04598
2.03366
2.0237
2.0106
1.99221
1.97385
1.96067
1.94948
1.9401
1.93276
1.9257
1.9152
1.90109
1.88556
1.87259
1.8621
1.85093
1.83889
1.8303
1.82492
1.81784
1.80842
1.79815
1.78847
1.77742
1.76573
1.75394
1.74394
1.73588
1.72723
1.71858
1.71089
1.70383
1.69572
1.68549
1.67475
1.66551
1.65827
1.65311
1.64823
1.64176
1.63326
1.62334
1.61233
1.60259
1.59594
1.58921
1.58068
1.57356
1.5695
1.56617
1.56136
1.55268
1.54025
1.52992
1.5237
1.51933
1.51471
1.50923
1.50282
1.49466
1.48513
1.47811
1.4745
1.47173
1.46818
1.46345
1.45735
1.44942
1.44014
1.43135
1.42517
1.4222
1.41989
1.41701
1.41358
1.4095
1.40415
1.39624
1.38761
1.38114
1.38018
1.38494
1.40729
1.45224
1.50918
1.55546
1.58421
1.59586
1.59691
1.60007
1.61053
1.6294
1.65781
1.69813
1.74547
1.77763
1.7967
1.80823
1.80844
1.80204
1.78858
1.77593
1.76958
1.76738
1.76702
1.76554
1.76111
1.75537
1.74817
1.73817
1.72708
1.7199
1.71684
1.71469
1.71279
1.71049
1.70815
1.70531
1.70059
1.69359
1.68455
1.67701
1.67351
1.6713
1.66909
1.66614
1.662
1.65165
1.556
1.53768
1.49808
1.44409
1.37606
1.31846
1.26723
1.20472
1.16305
1.14118
1.10922
1.07561
1.07332
1.06573
1.05169
1.04858
1.04852
1.04528
1.04462
1.04596
1.05193
1.0623
1.06749
1.06942
1.0714
1.07368
1.0751
1.07637
1.07759
1.07949
1.08202
1.08375
1.08397
1.08384
1.08328
1.08215
1.0818
1.08191
1.08219
1.08217
1.0821
1.08212
1.08162
1.08143
1.08269
1.10384
1.23003
1.38511
1.53195
1.61234
1.62247
1.61814
1.60743
1.59857
1.5999
1.65054
1.84153
2.08246
2.13365
2.11126
2.09056
2.07559
2.06175
2.05043
2.04303
2.03679
2.02712
2.00952
1.98246
1.96238
1.9524
1.94578
1.9422
1.93753
1.93032
1.91882
1.89933
1.87511
1.85828
1.84816
1.84098
1.8358
1.83273
1.82886
1.82221
1.81154
1.79443
1.77594
1.76345
1.75687
1.7514
1.74316
1.73326
1.72359
1.71348
1.70378
1.69644
1.69211
1.68724
1.67966
1.67114
1.66171
1.65146
1.64105
1.62858
1.61815
1.61346
1.61127
1.60732
1.60082
1.59166
1.58218
1.57385
1.56631
1.55929
1.55103
1.54151
1.53434
1.52926
1.52328
1.51674
1.51103
1.50485
1.49735
1.49033
1.48418
1.47797
1.47233
1.46804
1.46358
1.45767
1.45111
1.4455
1.43973
1.43426
1.42744
1.41942
1.41447
1.41193
1.40854
1.40298
1.39434
1.38868
1.39203
1.40899
1.44963
1.50668
1.56318
1.59071
1.59469
1.59992
1.60536
1.60422
1.60321
1.60095
1.59836
1.60186
1.61727
1.65328
1.6973
1.73802
1.77649
1.79337
1.79355
1.78909
1.78692
1.7837
1.78112
1.77715
1.76891
1.76124
1.75554
1.75016
1.74445
1.73552
1.72555
1.72015
1.71788
1.71561
1.71254
1.70996
1.70748
1.7049
1.70019
1.69172
1.68227
1.67659
1.67333
1.67057
1.66719
1.66149
1.65136
1.56622
1.55954
1.53885
1.50259
1.44707
1.39334
1.34486
1.2805
1.23485
1.20706
1.17341
1.129
1.11043
1.09321
1.06838
1.05239
1.05142
1.04612
1.04358
1.04514
1.0501
1.05403
1.05639
1.05759
1.05904
1.06202
1.06488
1.06801
1.07091
1.0738
1.07728
1.07877
1.07897
1.07878
1.07811
1.078
1.07859
1.07971
1.08053
1.08051
1.08028
1.07954
1.07803
1.07841
1.09668
1.24842
1.46073
1.55505
1.60745
1.62673
1.62653
1.62508
1.61795
1.60591
1.5986
1.59428
1.61838
1.77362
1.99634
2.1169
2.11345
2.09267
2.06504
2.05443
2.05116
2.04468
2.03313
2.01713
1.99258
1.96928
1.9585
1.95094
1.94643
1.94147
1.93389
1.92508
1.90788
1.88014
1.86066
1.85288
1.84714
1.84281
1.83838
1.83157
1.82391
1.81292
1.79499
1.77763
1.76727
1.75905
1.75081
1.743
1.73486
1.72545
1.7156
1.7071
1.70002
1.69298
1.68636
1.67984
1.67241
1.66304
1.6515
1.63905
1.62808
1.62038
1.61523
1.61094
1.60708
1.60311
1.59937
1.59317
1.58024
1.56485
1.55492
1.54945
1.54579
1.54183
1.53636
1.52847
1.51849
1.51114
1.50725
1.50419
1.50018
1.49419
1.48604
1.47661
1.46826
1.46202
1.45657
1.45141
1.4466
1.44285
1.43875
1.43233
1.42385
1.41632
1.41121
1.40721
1.40106
1.3985
1.40663
1.44404
1.50296
1.56835
1.59662
1.61763
1.62164
1.61893
1.61692
1.61612
1.61472
1.61125
1.60505
1.60012
1.59318
1.58878
1.59271
1.61156
1.64544
1.69421
1.74022
1.77553
1.78964
1.79449
1.79305
1.7875
1.77819
1.76883
1.76085
1.75712
1.75363
1.74822
1.74017
1.73245
1.72571
1.72029
1.7181
1.71575
1.71282
1.70892
1.70482
1.70081
1.69529
1.68853
1.68187
1.67529
1.67035
1.66625
1.66162
1.65492
1.57443
1.57033
1.56191
1.54226
1.50396
1.45574
1.41007
1.35578
1.30746
1.27319
1.23484
1.1909
1.167
1.14691
1.11651
1.09229
1.08648
1.07542
1.06148
1.06098
1.06105
1.05792
1.05354
1.05163
1.05099
1.05193
1.05514
1.06012
1.06653
1.07174
1.07547
1.07738
1.07775
1.07755
1.07715
1.07731
1.07816
1.07957
1.08054
1.08066
1.08041
1.07922
1.0806
1.10449
1.24916
1.48832
1.58534
1.61696
1.63425
1.63013
1.62316
1.6256
1.62485
1.61322
1.59862
1.59161
1.58609
1.59626
1.6901
1.90194
2.06373
2.07172
2.06818
2.06263
2.05968
2.04931
2.03572
2.02043
2
1.97829
1.96229
1.95296
1.94587
1.94194
1.93574
1.92741
1.91361
1.88863
1.86801
1.85982
1.85407
1.8481
1.8418
1.83496
1.82642
1.81331
1.79508
1.78067
1.77161
1.76362
1.75608
1.74851
1.7393
1.72819
1.7176
1.70964
1.70328
1.6972
1.69109
1.6839
1.67464
1.66271
1.6495
1.63857
1.63028
1.62335
1.61739
1.61322
1.61088
1.60902
1.60388
1.59347
1.57785
1.56395
1.55555
1.5491
1.54355
1.53921
1.53489
1.52926
1.52097
1.5125
1.5069
1.50321
1.49976
1.49526
1.48824
1.47664
1.46428
1.45798
1.45502
1.45344
1.45206
1.44978
1.44616
1.4408
1.43218
1.41994
1.40998
1.40634
1.40865
1.43267
1.4851
1.5566
1.60896
1.64083
1.64607
1.64455
1.63667
1.62628
1.61956
1.61706
1.61492
1.61223
1.60836
1.60352
1.5964
1.58868
1.5828
1.58307
1.5884
1.60671
1.64159
1.68997
1.73256
1.76628
1.77943
1.77829
1.77734
1.77375
1.76685
1.76287
1.75881
1.75296
1.74539
1.73845
1.73189
1.72479
1.72154
1.71967
1.71563
1.71071
1.70603
1.70194
1.69815
1.69354
1.68587
1.67574
1.66857
1.66511
1.66297
1.65928
1.58057
1.57814
1.57532
1.56585
1.54266
1.50873
1.46743
1.41562
1.37403
1.33622
1.29447
1.25173
1.22383
1.19771
1.16458
1.13941
1.12687
1.11184
1.08616
1.07812
1.07386
1.06574
1.05904
1.05741
1.05538
1.05506
1.05607
1.05872
1.06409
1.06907
1.0715
1.07342
1.07485
1.07596
1.07717
1.07844
1.08017
1.08149
1.08218
1.08233
1.08189
1.08658
1.13929
1.28303
1.51613
1.61545
1.63007
1.63539
1.63626
1.63508
1.62543
1.62114
1.62039
1.61579
1.59811
1.58512
1.57921
1.57339
1.57525
1.62158
1.78812
1.96782
2.04581
2.0602
2.05437