/*--------------------------------*- C++ -*----------------------------------*\
  =========                 |
  \\      /  F ield         | OpenFOAM: The Open Source CFD Toolbox
   \\    /   O peration     | Website:  https://openfoam.org
    \\  /    A nd           | Version:  7
     \\/     M anipulation  |
\*---------------------------------------------------------------------------*/
FoamFile
{
    version     2.0;
    format      ascii;
    class       volVectorField;
    location    "1.7";
    object      U;
}
// * * * * * * * * * * * * * * * * * * * * * * * * * * * * * * * * * * * * * //

dimensions      [0 1 -1 0 0 0 0];

internalField   nonuniform List<vector> 
18432
(
(3 -6.1866e-17 0)
(3 -1.83519e-16 0)
(3 -3.37944e-16 0)
(3 -8.98579e-16 0)
(3 -6.63623e-16 0)
(3 -6.07054e-17 0)
(3 6.27498e-16 0)
(3 5.13942e-16 0)
(3 -4.57448e-16 0)
(3 -6.1808e-16 0)
(3 4.17737e-17 0)
(3 1.18091e-15 0)
(3 1.52962e-15 0)
(3 1.4416e-15 0)
(3 9.0928e-16 0)
(3 6.35929e-16 0)
(3 4.87867e-16 0)
(3 -2.30107e-16 0)
(3 -6.8455e-16 0)
(3 -7.46181e-16 0)
(3 -5.6156e-16 0)
(3 -6.87401e-16 0)
(3 -1.00628e-15 0)
(3 -8.87115e-16 0)
(3 -9.15894e-16 0)
(3 -6.87964e-16 0)
(3 -4.7873e-16 0)
(3 -8.22413e-16 0)
(3 -1.58345e-15 0)
(3 -2.18324e-15 0)
(3 -2.18392e-15 0)
(3 -1.96631e-15 0)
(3 -1.58661e-15 0)
(3 -1.09944e-15 0)
(3 -5.57615e-16 0)
(3 -4.07602e-16 0)
(3 3.63828e-16 0)
(3 7.18181e-16 0)
(3 6.93526e-17 0)
(3 5.07987e-16 0)
(3 1.38226e-15 0)
(3 8.36727e-16 0)
(3 7.53783e-16 0)
(3 6.87825e-16 0)
(3 3.46087e-16 0)
(3 7.35352e-16 0)
(3 1.31982e-15 0)
(3 -7.63436e-17 0)
(3 -4.32043e-17 0)
(3 -2.15546e-16 0)
(3 -4.65632e-16 0)
(3 -5.51272e-16 0)
(3 -3.73647e-16 0)
(3 3.01359e-16 0)
(3 8.52138e-16 0)
(3 5.44291e-16 0)
(3 -5.8743e-17 0)
(3 -4.38715e-17 0)
(3 3.30636e-16 0)
(3 2.11106e-15 0)
(3 2.5646e-15 0)
(3 2.07551e-15 0)
(3 1.41394e-15 0)
(3 3.16474e-16 0)
(3 1.97809e-17 0)
(3 -2.03727e-16 0)
(3 -5.44523e-16 0)
(3 -8.16686e-16 0)
(3 -9.87918e-16 0)
(3 -1.11394e-15 0)
(3 -1.25255e-15 0)
(3 -5.37309e-17 0)
(3 2.40552e-16 0)
(3 4.96188e-16 0)
(3 -1.86003e-16 0)
(3 -1.49284e-15 0)
(3 -1.23152e-15 0)
(3 -8.3025e-16 0)
(3 -1.10918e-15 0)
(3 -2.00053e-15 0)
(3 -2.07307e-15 0)
(3 -1.83703e-15 0)
(3 -7.45309e-16 0)
(3 1.22409e-15 0)
(3 1.96914e-15 0)
(3 1.97273e-15 0)
(3 3.71659e-16 0)
(3 -1.06313e-16 0)
(3 3.53287e-16 0)
(3 5.96564e-16 0)
(3 4.45766e-16 0)
(3 8.04345e-16 0)
(3 1.26244e-15 0)
(3 2.12487e-15 0)
(3 2.94876e-15 0)
(3 -1.86553e-15 0)
(3 1.07095e-16 0)
(3 5.5044e-17 0)
(3 8.60269e-17 0)
(3 5.61775e-16 0)
(3 4.59779e-16 0)
(3 6.03479e-16 0)
(3 4.94089e-16 0)
(3 5.39159e-16 0)
(3 1.08601e-15 0)
(3 8.84711e-16 0)
(3 5.42394e-16 0)
(3 6.82273e-16 0)
(3 1.11009e-15 0)
(3 4.63185e-16 0)
(3 -3.32707e-16 0)
(3 -1.00331e-15 0)
(3 -1.77035e-15 0)
(3 -1.47748e-15 0)
(3 -1.1774e-15 0)
(3 -1.22281e-15 0)
(3 -1.49905e-15 0)
(3 -1.5623e-15 0)
(3 -1.04847e-15 0)
(3 5.42646e-16 0)
(3 7.14171e-16 0)
(3 5.34735e-16 0)
(3 2.92035e-16 0)
(3 1.1088e-16 0)
(3 2.27869e-16 0)
(3 1.67318e-16 0)
(3 7.29753e-16 0)
(3 8.75612e-16 0)
(3 6.43445e-17 0)
(3 -8.54864e-16 0)
(3 -1.33758e-15 0)
(3 1.29652e-15 0)
(3 2.63569e-15 0)
(3 3.43682e-15 0)
(3 1.76751e-15 0)
(3 4.33794e-16 0)
(3 4.12846e-17 0)
(3 1.95905e-16 0)
(3 4.6833e-16 0)
(3 6.8116e-16 0)
(3 6.85346e-16 0)
(3 1.05817e-15 0)
(3 8.52079e-16 0)
(3 -1.5447e-15 0)
(3 -3.75725e-17 0)
(3 -2.89357e-16 0)
(3 -2.99893e-16 0)
(3 -4.13276e-18 0)
(3 6.2895e-17 0)
(3 4.00435e-16 0)
(3 3.48015e-16 0)
(3 5.14081e-16 0)
(3 -3.81682e-16 0)
(3 -9.18588e-16 0)
(3 -1.01453e-15 0)
(3 -1.38267e-15 0)
(3 -1.39769e-15 0)
(3 -1.03227e-15 0)
(3 -1.1062e-15 0)
(3 -2.0138e-15 0)
(3 -2.45394e-15 0)
(3 -2.69522e-15 0)
(3 -2.75573e-15 0)
(3 -3.16276e-15 0)
(3 -2.98459e-15 0)
(3 -1.31468e-15 0)
(3 1.16713e-16 0)
(3 1.20096e-17 0)
(3 3.89942e-16 0)
(3 5.40175e-16 0)
(3 1.09936e-15 0)
(3 1.25339e-15 0)
(3 -8.2531e-17 0)
(3 -4.63775e-16 0)
(3 8.01915e-16 0)
(3 2.48007e-15 0)
(3 2.49348e-15 0)
(3 1.43081e-15 0)
(3 1.43142e-16 0)
(3 6.41759e-16 0)
(3 1.42571e-15 0)
(3 2.36574e-15 0)
(3 1.75722e-15 0)
(3 1.8458e-15 0)
(3 1.53256e-15 0)
(3 -3.26893e-17 0)
(3 -3.53288e-17 0)
(3 -1.06949e-15 0)
(3 -1.54606e-15 0)
(3 -2.09227e-15 0)
(3 -1.77649e-15 0)
(3 -1.38039e-15 0)
(3 1.74389e-17 0)
(3 1.80268e-16 0)
(3 3.68699e-16 0)
(3 5.08768e-16 0)
(3 1.00095e-15 0)
(3 9.53958e-16 0)
(3 7.91582e-16 0)
(3 -2.17281e-16 0)
(3 -1.29487e-15 0)
(3 -9.82282e-16 0)
(3 -5.89916e-16 0)
(3 -4.75516e-16 0)
(3 -3.63581e-16 0)
(3 -2.31104e-17 0)
(3 8.76148e-16 0)
(3 8.54839e-16 0)
(3 4.95004e-16 0)
(3 1.20784e-16 0)
(3 -1.00959e-15 0)
(3 -2.0447e-15 0)
(3 -1.78917e-15 0)
(3 -7.36956e-16 0)
(3 5.6294e-16 0)
(3 7.1268e-16 0)
(3 6.31797e-16 0)
(3 2.02828e-15 0)
(3 2.19783e-15 0)
(3 1.88411e-15 0)
(3 1.64219e-15 0)
(3 1.49123e-15 0)
(3 1.23932e-15 0)
(3 3.18452e-16 0)
(3 -8.0571e-18 0)
(3 4.48809e-16 0)
(3 7.63124e-16 0)
(3 8.68073e-16 0)
(3 3.96594e-16 0)
(3 1.1891e-16 0)
(3 6.04432e-16 0)
(3 4.96475e-16 0)
(3 2.18966e-16 0)
(3 -5.69861e-16 0)
(3 -1.68265e-15 0)
(3 -2.18566e-15 0)
(3 -2.15864e-15 0)
(3 -2.03074e-15 0)
(3 -1.38785e-15 0)
(3 -4.14731e-16 0)
(3 1.37754e-16 0)
(3 7.53099e-16 0)
(3 6.59273e-16 0)
(3 5.49858e-16 0)
(3 7.66589e-16 0)
(3 4.94094e-16 0)
(3 2.41774e-16 0)
(3 -2.26032e-16 0)
(3 3.09522e-16 0)
(3 1.40351e-15 0)
(3 1.46108e-15 0)
(3 1.15406e-15 0)
(3 2.67722e-16 0)
(3 -2.99992e-16 0)
(3 -2.53366e-17 0)
(3 7.36167e-16 0)
(3 5.42236e-16 0)
(3 2.6454e-16 0)
(3 -3.82598e-16 0)
(3 -1.65499e-16 0)
(3 -3.55709e-16 0)
(3 -7.94828e-16 0)
(3 -6.36272e-16 0)
(3 -1.81571e-16 0)
(3 5.73036e-16 0)
(3 8.61311e-16 0)
(3 7.09213e-16 0)
(3 8.94462e-16 0)
(3 1.38795e-15 0)
(3 1.87312e-15 0)
(3 2.01607e-15 0)
(3 -4.13005e-16 0)
(3 -9.88756e-16 0)
(3 -6.91425e-16 0)
(3 1.93759e-16 0)
(3 -5.58928e-17 0)
(3 -8.72638e-16 0)
(3 -1.54389e-15 0)
(3 -9.01127e-16 0)
(3 -4.62669e-16 0)
(3 -7.17506e-16 0)
(3 -1.28849e-15 0)
(3 -1.30228e-15 0)
(3 -1.30932e-15 0)
(3 -1.90057e-15 0)
(3 -2.52744e-15 0)
(3 -2.52761e-15 0)
(3 -1.8312e-15 0)
(3 -1.42518e-17 0)
(3 -7.95248e-18 0)
(3 2.23604e-16 0)
(3 -9.40203e-17 0)
(3 -4.88859e-16 0)
(3 -9.49496e-16 0)
(3 -1.11116e-15 0)
(3 -6.7116e-16 0)
(3 2.49655e-16 0)
(3 9.10488e-16 0)
(3 7.84851e-16 0)
(3 1.05699e-16 0)
(3 -4.9566e-16 0)
(3 -8.32605e-16 0)
(3 -1.06244e-15 0)
(3 -9.19613e-16 0)
(3 -1.09671e-15 0)
(3 -1.85558e-15 0)
(3 -1.50785e-15 0)
(3 -8.89948e-16 0)
(3 -4.80114e-16 0)
(3 -1.03859e-15 0)
(3 -9.39276e-16 0)
(3 1.3604e-17 0)
(3 1.39246e-16 0)
(3 1.82068e-16 0)
(3 6.17026e-16 0)
(3 1.17562e-15 0)
(3 9.81574e-16 0)
(3 7.73201e-16 0)
(3 5.79668e-17 0)
(3 -7.35096e-16 0)
(3 -1.1566e-15 0)
(3 -1.98723e-15 0)
(3 -1.81135e-15 0)
(3 -1.03352e-15 0)
(3 -1.18713e-15 0)
(3 -1.3248e-15 0)
(3 -7.88512e-16 0)
(3 7.7138e-16 0)
(3 -2.08921e-18 0)
(3 -3.53256e-16 0)
(3 6.22903e-16 0)
(3 8.34121e-16 0)
(3 -1.95063e-16 0)
(3 -2.05591e-15 0)
(3 -2.47931e-15 0)
(3 -3.36655e-15 0)
(3 -7.33652e-17 0)
(3 8.5333e-18 0)
(3 5.09637e-16 0)
(3 5.50445e-16 0)
(3 -3.44086e-17 0)
(3 -4.1195e-16 0)
(3 -6.94068e-16 0)
(3 -6.73829e-16 0)
(3 -6.77939e-16 0)
(3 -7.42371e-16 0)
(3 -6.79292e-16 0)
(3 -2.53244e-16 0)
(3 1.76469e-16 0)
(3 3.87504e-16 0)
(3 -1.83924e-16 0)
(3 -7.03987e-16 0)
(3 -1.08857e-15 0)
(3 -8.14326e-16 0)
(3 -3.06624e-16 0)
(3 -5.52215e-16 0)
(3 5.38295e-16 0)
(3 6.02713e-16 0)
(3 5.51689e-16 0)
(3 7.70303e-16 0)
(3 7.00357e-16 0)
(3 4.26876e-16 0)
(3 1.05123e-15 0)
(3 1.09442e-15 0)
(3 4.81944e-16 0)
(3 -1.44917e-16 0)
(3 -1.80767e-15 0)
(3 -1.3616e-15 0)
(3 -9.60792e-16 0)
(3 -8.23466e-16 0)
(3 -1.05593e-15 0)
(3 -1.42925e-15 0)
(3 -2.03448e-15 0)
(3 -1.54169e-15 0)
(3 -6.40016e-16 0)
(3 -7.85154e-17 0)
(3 2.16961e-17 0)
(3 -3.98496e-16 0)
(3 -9.28395e-16 0)
(3 -8.91102e-16 0)
(3 -1.18151e-15 0)
(3 -1.81118e-15 0)
(3 -2.52595e-15 0)
(3 -3.32982e-15 0)
(3 -5.16601e-17 0)
(3 -2.63786e-16 0)
(3 -8.5813e-16 0)
(3 -1.04123e-15 0)
(3 -5.73562e-16 0)
(3 2.20941e-16 0)
(3 1.89354e-16 0)
(3 3.65016e-16 0)
(3 1.00086e-16 0)
(3 9.48168e-17 0)
(3 2.07718e-16 0)
(3 2.74236e-16 0)
(3 2.35409e-16 0)
(3 8.25162e-18 0)
(3 -1.37102e-17 0)
(3 -1.66119e-16 0)
(3 4.63255e-16 0)
(3 1.07703e-15 0)
(3 2.01015e-15 0)
(3 1.84194e-15 0)
(3 1.26527e-15 0)
(3 1.26994e-15 0)
(3 1.29752e-15 0)
(3 1.02392e-15 0)
(3 1.27695e-15 0)
(3 1.29207e-15 0)
(3 7.63274e-16 0)
(3 -5.25118e-16 0)
(3 -1.42198e-15 0)
(3 -1.65234e-15 0)
(3 -1.73448e-15 0)
(3 -2.41923e-15 0)
(3 -1.4864e-15 0)
(3 -6.33661e-16 0)
(3 -2.43055e-16 0)
(3 -6.37021e-16 0)
(3 -2.68865e-15 0)
(3 -3.83272e-15 0)
(3 -3.35296e-15 0)
(3 -2.05271e-15 0)
(3 -1.67049e-15 0)
(3 -1.59571e-15 0)
(3 -1.7711e-15 0)
(3 -1.98062e-15 0)
(3 -1.5648e-15 0)
(3 -2.12835e-15 0)
(3 -2.44788e-15 0)
(3 -1.96102e-15 0)
(3 1.01332e-16 0)
(3 -4.22374e-17 0)
(3 -5.19828e-16 0)
(3 -6.44489e-16 0)
(3 -6.73958e-17 0)
(3 1.70052e-16 0)
(3 5.99952e-16 0)
(3 1.09599e-15 0)
(3 8.69901e-16 0)
(3 8.5405e-16 0)
(3 5.95818e-16 0)
(3 -7.76119e-16 0)
(3 -1.2981e-15 0)
(3 -1.37588e-15 0)
(3 -1.2585e-15 0)
(3 -7.37231e-16 0)
(3 3.43223e-17 0)
(3 5.64421e-16 0)
(3 1.03554e-15 0)
(3 1.48216e-15 0)
(3 9.17028e-16 0)
(3 1.76085e-15 0)
(3 1.81349e-15 0)
(3 1.067e-15 0)
(3 9.04002e-16 0)
(3 1.13544e-15 0)
(3 9.9848e-17 0)
(3 -9.56954e-16 0)
(3 -1.5562e-15 0)
(3 -1.72934e-15 0)
(3 -1.43522e-15 0)
(3 -1.14363e-15 0)
(3 -9.05162e-16 0)
(3 -1.12311e-15 0)
(3 -8.56742e-16 0)
(3 -5.06173e-16 0)
(3 -1.01356e-15 0)
(3 -1.56194e-15 0)
(3 -1.70108e-15 0)
(3 -1.96919e-15 0)
(3 -1.49853e-15 0)
(3 -1.13167e-15 0)
(3 -3.75288e-16 0)
(3 -4.04478e-16 0)
(3 -7.06084e-17 0)
(3 6.52778e-16 0)
(3 5.39283e-16 0)
(3 8.83595e-16 0)
(3 2.50002e-17 0)
(3 -4.07171e-18 0)
(3 1.24941e-16 0)
(3 4.63506e-16 0)
(3 3.83432e-16 0)
(3 4.03651e-16 0)
(3 8.50081e-16 0)
(3 7.9861e-16 0)
(3 5.46401e-16 0)
(3 3.04598e-16 0)
(3 -7.64183e-17 0)
(3 -7.74935e-16 0)
(3 -1.02026e-15 0)
(3 -1.81218e-15 0)
(3 -1.68947e-15 0)
(3 -1.08655e-15 0)
(3 -4.63455e-16 0)
(3 8.46796e-17 0)
(3 -1.40776e-16 0)
(3 -4.88872e-16 0)
(3 -1.36016e-16 0)
(3 1.03073e-15 0)
(3 1.13796e-15 0)
(3 6.32676e-16 0)
(3 2.13835e-16 0)
(3 1.08548e-16 0)
(3 2.56917e-16 0)
(3 3.62786e-16 0)
(3 1.03625e-16 0)
(3 -7.91029e-16 0)
(3 -1.14892e-15 0)
(3 -6.33695e-16 0)
(3 -4.4929e-16 0)
(3 -6.86645e-16 0)
(3 -4.38085e-16 0)
(3 -6.82994e-17 0)
(3 9.25463e-16 0)
(3 1.46673e-15 0)
(3 5.82266e-16 0)
(3 8.3923e-17 0)
(3 -9.20405e-17 0)
(3 -4.6374e-16 0)
(3 -7.96657e-16 0)
(3 -7.15915e-16 0)
(3 3.22941e-16 0)
(3 1.88146e-15 0)
(3 2.37064e-15 0)
(3 2.45219e-15 0)
(3 -1.16985e-16 0)
(3 -4.0822e-16 0)
(3 -3.84493e-16 0)
(3 -6.02894e-17 0)
(3 2.14006e-16 0)
(3 5.32856e-16 0)
(3 6.57831e-16 0)
(3 2.666e-16 0)
(3 -7.09387e-17 0)
(3 -7.41628e-17 0)
(3 2.76256e-16 0)
(3 4.58448e-16 0)
(3 2.27415e-16 0)
(3 2.93248e-16 0)
(3 2.32991e-16 0)
(3 4.30458e-16 0)
(3 1.07613e-15 0)
(3 1.67785e-15 0)
(3 1.31099e-15 0)
(3 8.57417e-16 0)
(3 5.1493e-16 0)
(3 2.86499e-17 0)
(3 -4.79293e-16 0)
(3 5.72751e-16 0)
(3 8.17588e-16 0)
(3 9.67334e-16 0)
(3 1.00744e-15 0)
(3 1.7292e-15 0)
(3 1.85489e-15 0)
(3 1.46488e-15 0)
(3 4.46264e-16 0)
(3 -1.59208e-16 0)
(3 1.61926e-16 0)
(3 6.7811e-16 0)
(3 4.43775e-16 0)
(3 1.94223e-16 0)
(3 2.92022e-16 0)
(3 4.19537e-16 0)
(3 -1.75676e-16 0)
(3 -9.09688e-16 0)
(3 -7.26646e-16 0)
(3 -4.39412e-16 0)
(3 2.21364e-16 0)
(3 1.71929e-15 0)
(3 1.91439e-15 0)
(3 1.95403e-15 0)
(3 2.63806e-15 0)
(3 3.02974e-15 0)
(3 -8.02805e-18 0)
(3 6.90779e-17 0)
(3 5.62678e-17 0)
(3 -7.69601e-17 0)
(3 -1.39012e-17 0)
(3 -3.4145e-16 0)
(3 -1.62571e-16 0)
(3 -1.73188e-16 0)
(3 -4.05709e-16 0)
(3 -7.88908e-16 0)
(3 3.21429e-16 0)
(3 1.18825e-15 0)
(3 1.373e-15 0)
(3 2.22781e-15 0)
(3 2.15456e-15 0)
(3 1.94518e-15 0)
(3 2.29309e-15 0)
(3 2.16202e-15 0)
(3 1.39061e-15 0)
(3 1.19109e-15 0)
(3 6.27199e-16 0)
(3 -1.34582e-16 0)
(3 -5.34041e-16 0)
(3 -1.76289e-16 0)
(3 -3.08792e-17 0)
(3 -2.43299e-16 0)
(3 -2.31407e-16 0)
(3 -7.2907e-16 0)
(3 -5.97221e-16 0)
(3 -4.82009e-16 0)
(3 -3.81755e-16 0)
(3 -1.8151e-16 0)
(3 3.75726e-17 0)
(3 -1.25244e-16 0)
(3 -1.09419e-15 0)
(3 -1.00212e-15 0)
(3 -3.61273e-16 0)
(3 6.16546e-16 0)
(3 7.02649e-16 0)
(3 -4.11117e-16 0)
(3 -6.45483e-16 0)
(3 1.26748e-16 0)
(3 1.4666e-15 0)
(3 2.7418e-15 0)
(3 2.63933e-15 0)
(3 1.76322e-15 0)
(3 1.89512e-15 0)
(3 2.16604e-15 0)
(3 1.8282e-18 0)
(3 2.13298e-17 0)
(3 2.36259e-16 0)
(3 1.69063e-16 0)
(3 -1.19466e-15 0)
(3 -1.28114e-15 0)
(3 -1.26047e-15 0)
(3 -3.90475e-16 0)
(3 -3.06632e-16 0)
(3 -2.3162e-16 0)
(3 1.26639e-16 0)
(3 4.12081e-16 0)
(3 1.43654e-15 0)
(3 2.40313e-15 0)
(3 3.35554e-15 0)
(3 3.47099e-15 0)
(3 2.88617e-15 0)
(3 1.36632e-15 0)
(3 3.5996e-16 0)
(3 2.51694e-16 0)
(3 4.96293e-17 0)
(3 1.91457e-16 0)
(3 -1.74764e-16 0)
(3 -5.72018e-16 0)
(3 -2.13301e-16 0)
(3 -5.18824e-16 0)
(3 -6.92176e-16 0)
(3 -1.67347e-15 0)
(3 -2.17212e-15 0)
(3 -2.56451e-15 0)
(3 -2.38323e-15 0)
(3 -2.0579e-15 0)
(3 -1.28999e-15 0)
(3 -4.81096e-16 0)
(3 4.94633e-17 0)
(3 3.55276e-16 0)
(3 5.36151e-16 0)
(3 1.02197e-15 0)
(3 1.23617e-15 0)
(3 6.22951e-16 0)
(3 1.8135e-16 0)
(3 7.61461e-16 0)
(3 1.73408e-15 0)
(3 2.35454e-15 0)
(3 2.84207e-15 0)
(3 2.13814e-15 0)
(3 1.85976e-15 0)
(3 2.09933e-15 0)
(3 -4.54732e-18 0)
(3 2.33502e-17 0)
(3 2.71345e-16 0)
(3 1.57398e-16 0)
(3 -3.57328e-16 0)
(3 -6.52211e-16 0)
(3 -6.85395e-16 0)
(3 -4.27771e-16 0)
(3 -2.07937e-16 0)
(3 -2.51355e-16 0)
(3 -3.69202e-16 0)
(3 -1.02254e-16 0)
(3 5.6485e-16 0)
(3 1.13675e-15 0)
(3 1.78591e-15 0)
(3 1.48983e-15 0)
(3 8.9542e-16 0)
(3 -2.25384e-17 0)
(3 -1.0764e-16 0)
(3 -5.5528e-16 0)
(3 -4.67838e-16 0)
(3 -5.64968e-16 0)
(3 -7.48379e-16 0)
(3 -3.71821e-16 0)
(3 2.57865e-16 0)
(3 1.01556e-16 0)
(3 1.04423e-16 0)
(3 -1.21254e-15 0)
(3 -2.30866e-15 0)
(3 -2.43129e-15 0)
(3 -2.67502e-15 0)
(3 -3.47968e-15 0)
(3 -2.80688e-15 0)
(3 1.48682e-16 0)
(3 1.30929e-15 0)
(3 8.28496e-16 0)
(3 1.81529e-16 0)
(3 2.22866e-16 0)
(3 -2.43985e-16 0)
(3 -1.41615e-16 0)
(3 7.87263e-17 0)
(3 1.59885e-15 0)
(3 2.94946e-15 0)
(3 3.52949e-15 0)
(3 3.44945e-15 0)
(3 3.5395e-15 0)
(3 3.19201e-15 0)
(3 2.00357e-15 0)
(3 5.30301e-17 0)
(3 1.6057e-16 0)
(3 -9.40309e-17 0)
(3 -4.74855e-16 0)
(3 -5.40899e-16 0)
(3 -7.0985e-16 0)
(3 -4.87481e-16 0)
(3 2.45996e-16 0)
(3 6.26281e-16 0)
(3 5.2938e-16 0)
(3 4.01292e-16 0)
(3 6.06919e-16 0)
(3 7.96209e-16 0)
(3 9.96964e-16 0)
(3 3.72938e-16 0)
(3 -5.87188e-16 0)
(3 -1.25406e-15 0)
(3 -8.91056e-16 0)
(3 -7.45397e-16 0)
(3 -8.3656e-16 0)
(3 -8.75078e-16 0)
(3 -7.52729e-16 0)
(3 -7.3445e-16 0)
(3 1.94129e-16 0)
(3 6.2778e-16 0)
(3 3.04396e-16 0)
(3 -1.24401e-15 0)
(3 -2.01099e-15 0)
(3 -1.66092e-15 0)
(3 -1.35003e-15 0)
(3 -1.70206e-15 0)
(3 -1.32898e-15 0)
(3 -1.23293e-15 0)
(3 -6.4292e-16 0)
(3 2.56449e-17 0)
(3 4.04901e-16 0)
(3 -3.07834e-16 0)
(3 -7.30906e-16 0)
(3 1.92775e-16 0)
(3 1.20489e-15 0)
(3 3.16878e-15 0)
(3 3.77143e-15 0)
(3 3.90806e-15 0)
(3 4.39426e-15 0)
(3 4.41878e-15 0)
(3 3.63567e-15 0)
(3 2.02741e-15 0)
(3 9.11184e-16 0)
(3 -4.62806e-17 0)
(3 3.15008e-17 0)
(3 -1.03707e-16 0)
(3 -6.5793e-17 0)
(3 2.17031e-17 0)
(3 -3.94913e-16 0)
(3 -7.93003e-17 0)
(3 4.66671e-16 0)
(3 1.25061e-15 0)
(3 1.6619e-15 0)
(3 1.46043e-15 0)
(3 1.29437e-15 0)
(3 1.41738e-15 0)
(3 9.30129e-16 0)
(3 5.66353e-16 0)
(3 5.0021e-16 0)
(3 -5.69643e-16 0)
(3 -9.12341e-17 0)
(3 -3.53438e-16 0)
(3 -3.6114e-16 0)
(3 -2.19157e-16 0)
(3 8.9075e-16 0)
(3 1.65984e-15 0)
(3 1.60482e-15 0)
(3 1.44176e-15 0)
(3 1.14002e-15 0)
(3 -2.28318e-16 0)
(3 -3.89268e-16 0)
(3 -8.98174e-16 0)
(3 -9.8595e-16 0)
(3 -9.06737e-16 0)
(3 -6.3717e-16 0)
(3 -9.23832e-16 0)
(3 -1.80519e-15 0)
(3 -2.03097e-15 0)
(3 4.18575e-17 0)
(3 4.42635e-16 0)
(3 5.01658e-16 0)
(3 1.94208e-15 0)
(3 2.79814e-15 0)
(3 3.66366e-15 0)
(3 3.92835e-15 0)
(3 3.80254e-15 0)
(3 3.14015e-15 0)
(3 3.60016e-15 0)
(3 3.4338e-15 0)
(3 2.01759e-15 0)
(3 1.52353e-15 0)
(3 -1.05061e-16 0)
(3 -1.75842e-16 0)
(3 8.24251e-17 0)
(3 3.99677e-16 0)
(3 5.29063e-16 0)
(3 3.2413e-16 0)
(3 1.77402e-16 0)
(3 -1.90517e-16 0)
(3 1.21668e-16 0)
(3 7.13945e-16 0)
(3 7.83481e-16 0)
(3 7.42107e-16 0)
(3 8.91636e-16 0)
(3 6.39052e-16 0)
(3 5.85401e-16 0)
(3 4.18393e-16 0)
(3 3.08493e-16 0)
(3 7.61554e-17 0)
(3 3.13306e-16 0)
(3 6.22616e-16 0)
(3 9.84358e-16 0)
(3 1.17565e-15 0)
(3 2.08787e-15 0)
(3 1.15194e-15 0)
(3 1.61881e-16 0)
(3 1.94065e-16 0)
(3 8.96811e-16 0)
(3 1.02276e-15 0)
(3 4.32075e-16 0)
(3 5.78926e-16 0)
(3 3.96869e-16 0)
(3 -9.64966e-16 0)
(3 -1.11635e-15 0)
(3 -1.13996e-15 0)
(3 -7.41341e-16 0)
(3 -3.19093e-16 0)
(3 3.79461e-16 0)
(3 1.13446e-15 0)
(3 1.62571e-15 0)
(3 1.8313e-15 0)
(3 2.54102e-15 0)
(3 3.18031e-15 0)
(3 2.48534e-15 0)
(3 1.21932e-15 0)
(3 9.29855e-16 0)
(3 9.51052e-16 0)
(3 9.91948e-16 0)
(3 1.33992e-15 0)
(3 -3.2164e-17 0)
(3 -3.91952e-17 0)
(3 -2.20874e-16 0)
(3 -5.1364e-16 0)
(3 -5.45744e-16 0)
(3 -3.42021e-16 0)
(3 -3.02025e-16 0)
(3 -4.17584e-16 0)
(3 -7.35687e-16 0)
(3 -8.11938e-16 0)
(3 -2.61603e-16 0)
(3 -1.99615e-16 0)
(3 -7.20624e-16 0)
(3 -1.08428e-15 0)
(3 -8.70319e-16 0)
(3 -6.98082e-16 0)
(3 2.11103e-16 0)
(3 4.40708e-16 0)
(3 1.14605e-15 0)
(3 1.72749e-15 0)
(3 1.31416e-15 0)
(3 1.15522e-15 0)
(3 9.51429e-16 0)
(3 5.28101e-16 0)
(3 3.27088e-16 0)
(3 5.28914e-16 0)
(3 1.03121e-15 0)
(3 8.11007e-16 0)
(3 1.25087e-15 0)
(3 1.03645e-15 0)
(3 8.63352e-16 0)
(3 3.89348e-16 0)
(3 -5.75211e-16 0)
(3 -9.59481e-16 0)
(3 -1.33599e-15 0)
(3 -1.54908e-15 0)
(3 -6.6217e-16 0)
(3 -9.27284e-17 0)
(3 3.95236e-16 0)
(3 9.48893e-16 0)
(3 7.7411e-16 0)
(3 6.2179e-16 0)
(3 3.83789e-16 0)
(3 5.72467e-17 0)
(3 -7.6666e-16 0)
(3 -9.04413e-16 0)
(3 -4.31443e-16 0)
(3 -1.99559e-16 0)
(3 1.09638e-17 0)
(3 1.13392e-16 0)
(3 5.28841e-17 0)
(3 1.5624e-17 0)
(3 -7.51349e-16 0)
(3 -7.21632e-16 0)
(3 -4.44583e-16 0)
(3 -1.01003e-15 0)
(3 -1.4026e-15 0)
(3 -9.75367e-16 0)
(3 -8.47533e-16 0)
(3 -1.31996e-15 0)
(3 -1.74505e-15 0)
(3 -1.47318e-15 0)
(3 -4.69027e-16 0)
(3 3.60481e-16 0)
(3 4.76885e-16 0)
(3 1.41553e-15 0)
(3 1.76538e-15 0)
(3 2.0991e-15 0)
(3 2.10573e-15 0)
(3 1.93102e-15 0)
(3 8.56398e-16 0)
(3 8.37e-16 0)
(3 1.2125e-15 0)
(3 1.12636e-15 0)
(3 1.0265e-15 0)
(3 1.51376e-15 0)
(3 1.37003e-15 0)
(3 6.17759e-16 0)
(3 8.23759e-16 0)
(3 1.12645e-15 0)
(3 9.77257e-16 0)
(3 -6.34659e-16 0)
(3 -1.89704e-15 0)
(3 -2.13622e-15 0)
(3 -9.10508e-16 0)
(3 8.38236e-16 0)
(3 1.14572e-15 0)
(3 7.01e-16 0)
(3 2.95352e-16 0)
(3 -7.05922e-16 0)
(3 -1.11415e-16 0)
(3 3.73103e-16 0)
(3 -1.63465e-16 0)
(3 -6.41184e-16 0)
(3 -6.18912e-16 0)
(3 -3.94723e-16 0)
(3 1.68061e-16 0)
(3 -1.31618e-17 0)
(3 -2.10527e-17 0)
(3 6.89805e-16 0)
(3 7.35083e-16 0)
(3 1.01354e-15 0)
(3 6.45702e-16 0)
(3 -5.93764e-16 0)
(3 -6.23684e-16 0)
(3 -5.48253e-16 0)
(3 -1.09042e-15 0)
(3 -1.2181e-15 0)
(3 -8.81262e-16 0)
(3 -3.27768e-16 0)
(3 -3.68988e-16 0)
(3 -4.21506e-16 0)
(3 -1.27269e-16 0)
(3 4.4476e-16 0)
(3 1.07551e-15 0)
(3 1.29206e-15 0)
(3 1.24798e-15 0)
(3 7.49555e-16 0)
(3 -1.69932e-16 0)
(3 -7.15052e-16 0)
(3 -8.53555e-16 0)
(3 -6.79692e-16 0)
(3 -2.4334e-16 0)
(3 5.72272e-16 0)
(3 4.25917e-16 0)
(3 5.55981e-16 0)
(3 5.64479e-16 0)
(3 5.66315e-16 0)
(3 3.55978e-16 0)
(3 -3.93854e-16 0)
(3 -5.58565e-16 0)
(3 1.00205e-16 0)
(3 -1.03949e-15 0)
(3 -1.69825e-15 0)
(3 -1.44177e-15 0)
(3 -5.87798e-16 0)
(3 1.23861e-16 0)
(3 4.2569e-16 0)
(3 1.55607e-16 0)
(3 9.49638e-16 0)
(3 1.43997e-15 0)
(3 1.64842e-15 0)
(3 1.7621e-15 0)
(3 2.13121e-15 0)
(3 8.01457e-17 0)
(3 -1.9753e-17 0)
(3 -6.80637e-17 0)
(3 4.72574e-17 0)
(3 5.73682e-16 0)
(3 1.05356e-15 0)
(3 9.07655e-16 0)
(3 7.61367e-16 0)
(3 6.45311e-16 0)
(3 -7.43155e-16 0)
(3 -8.79316e-16 0)
(3 -7.31538e-16 0)
(3 -5.85348e-16 0)
(3 -4.31535e-16 0)
(3 -5.77688e-16 0)
(3 -2.45528e-16 0)
(3 5.01911e-16 0)
(3 8.05685e-16 0)
(3 3.90047e-16 0)
(3 6.03681e-16 0)
(3 6.01901e-16 0)
(3 3.57784e-16 0)
(3 5.74937e-18 0)
(3 -4.69036e-16 0)
(3 -1.43036e-15 0)
(3 -1.21249e-15 0)
(3 -1.39317e-15 0)
(3 -1.74254e-15 0)
(3 -1.63678e-15 0)
(3 -7.96011e-16 0)
(3 4.7377e-16 0)
(3 8.68537e-16 0)
(3 2.83533e-16 0)
(3 5.98706e-16 0)
(3 7.36163e-16 0)
(3 1.44637e-15 0)
(3 -4.26731e-16 0)
(3 -2.59996e-15 0)
(3 -2.49437e-15 0)
(3 -1.14772e-15 0)
(3 -1.19471e-16 0)
(3 4.68507e-17 0)
(3 1.90451e-17 0)
(3 3.28049e-16 0)
(3 1.02214e-15 0)
(3 1.52977e-15 0)
(3 1.36431e-15 0)
(3 1.20108e-15 0)
(3 -5.01725e-17 0)
(3 -1.83121e-16 0)
(3 -2.69664e-17 0)
(3 -1.61303e-16 0)
(3 -6.93257e-17 0)
(3 -9.45635e-17 0)
(3 -8.91325e-17 0)
(3 -2.24508e-16 0)
(3 -7.21036e-16 0)
(3 -1.06741e-15 0)
(3 -9.85623e-16 0)
(3 -1.0728e-15 0)
(3 -8.55479e-16 0)
(3 -1.23188e-15 0)
(3 -9.13874e-16 0)
(3 -7.49525e-16 0)
(3 4.01789e-17 0)
(3 6.69671e-16 0)
(3 1.46974e-16 0)
(3 2.80212e-16 0)
(3 6.03609e-16 0)
(3 5.70719e-16 0)
(3 3.63416e-16 0)
(3 -1.25911e-16 0)
(3 -1.30636e-15 0)
(3 -1.85262e-15 0)
(3 -1.95089e-15 0)
(3 -1.97007e-15 0)
(3 -6.32464e-16 0)
(3 4.76471e-16 0)
(3 1.27113e-15 0)
(3 8.45661e-16 0)
(3 5.08609e-16 0)
(3 7.75999e-16 0)
(3 1.675e-15 0)
(3 2.12729e-15 0)
(3 -2.49503e-16 0)
(3 -1.29886e-15 0)
(3 -6.92112e-16 0)
(3 -2.75287e-16 0)
(3 -9.83632e-17 0)
(3 3.64617e-17 0)
(3 6.41269e-17 0)
(3 5.92371e-16 0)
(3 9.59412e-16 0)
(3 8.06711e-16 0)
(3 8.10588e-16 0)
(3 3.97887e-16 0)
(3 -2.11404e-17 0)
(3 -2.04307e-16 0)
(3 -2.6202e-16 0)
(3 -4.74101e-16 0)
(3 -3.47257e-16 0)
(3 -5.70077e-16 0)
(3 -6.83809e-16 0)
(3 -6.49395e-16 0)
(3 -5.71966e-16 0)
(3 3.85748e-16 0)
(3 1.75539e-16 0)
(3 4.53474e-16 0)
(3 3.08844e-16 0)
(3 -6.82434e-17 0)
(3 -1.80186e-16 0)
(3 -1.17095e-16 0)
(3 -6.58958e-16 0)
(3 -1.52258e-15 0)
(3 -1.00713e-15 0)
(3 -6.07799e-16 0)
(3 -4.00077e-16 0)
(3 -1.1124e-16 0)
(3 -3.92105e-17 0)
(3 -6.37391e-16 0)
(3 -1.09253e-15 0)
(3 -1.34091e-15 0)
(3 -1.04234e-15 0)
(3 -3.89744e-16 0)
(3 9.20985e-17 0)
(3 3.48903e-16 0)
(3 1.25599e-16 0)
(3 8.50024e-17 0)
(3 1.80286e-16 0)
(3 9.1079e-16 0)
(3 3.30367e-15 0)
(3 3.15513e-15 0)
(3 1.90193e-15 0)
(3 1.71198e-15 0)
(3 1.38946e-15 0)
(3 6.5242e-16 0)
(3 4.58427e-16 0)
(3 9.63465e-16 0)
(3 8.00551e-16 0)
(3 2.4489e-16 0)
(3 7.78866e-17 0)
(3 3.14932e-16 0)
(3 5.57082e-16 0)
(3 7.13814e-16 0)
(3 -1.34997e-16 0)
(3 3.17216e-17 0)
(3 -5.33816e-17 0)
(3 -6.80009e-17 0)
(3 -5.95839e-16 0)
(3 -9.30996e-16 0)
(3 -1.16446e-15 0)
(3 -5.81872e-16 0)
(3 5.79529e-16 0)
(3 1.16925e-15 0)
(3 1.04693e-15 0)
(3 1.64457e-15 0)
(3 1.25413e-15 0)
(3 1.42096e-15 0)
(3 1.20158e-15 0)
(3 5.40598e-16 0)
(3 -4.54187e-16 0)
(3 -1.43735e-15 0)
(3 -1.25419e-15 0)
(3 -1.08632e-15 0)
(3 -1.24131e-15 0)
(3 -1.32782e-15 0)
(3 -1.6933e-15 0)
(3 -6.76496e-16 0)
(3 6.40319e-16 0)
(3 3.50449e-16 0)
(3 -4.38247e-16 0)
(3 -5.74798e-16 0)
(3 -5.02576e-16 0)
(3 -9.38163e-16 0)
(3 -1.30237e-15 0)
(3 -1.17568e-15 0)
(3 -1.01866e-15 0)
(3 4.37441e-17 0)
(3 1.09669e-15 0)
(3 1.13626e-15 0)
(3 1.55145e-15 0)
(3 2.40036e-15 0)
(3 1.63928e-15 0)
(3 2.35964e-16 0)
(3 7.47173e-18 0)
(3 2.15357e-16 0)
(3 2.73785e-16 0)
(3 -2.77444e-16 0)
(3 -6.1743e-16 0)
(3 -8.02331e-16 0)
(3 -1.07105e-15 0)
(3 -4.0839e-17 0)
(3 -3.91069e-17 0)
(3 2.52527e-16 0)
(3 3.36685e-16 0)
(3 2.75914e-16 0)
(3 -2.83141e-16 0)
(3 -4.7444e-16 0)
(3 -2.70707e-16 0)
(3 3.7439e-16 0)
(3 3.47406e-16 0)
(3 7.98042e-17 0)
(3 5.29729e-16 0)
(3 9.18806e-16 0)
(3 2.85366e-16 0)
(3 4.34654e-16 0)
(3 4.40376e-16 0)
(3 -4.82037e-17 0)
(3 -6.70548e-16 0)
(3 -5.52194e-16 0)
(3 -5.93873e-16 0)
(3 -1.03025e-15 0)
(3 -1.29513e-15 0)
(3 -1.75975e-15 0)
(3 -1.65344e-15 0)
(3 -2.41807e-17 0)
(3 6.86833e-16 0)
(3 4.17615e-16 0)
(3 -3.23856e-18 0)
(3 -1.17272e-17 0)
(3 7.44156e-16 0)
(3 8.85329e-16 0)
(3 2.64294e-16 0)
(3 -4.94117e-16 0)
(3 -7.73857e-17 0)
(3 4.65179e-16 0)
(3 1.69597e-16 0)
(3 -3.64652e-16 0)
(3 -9.84283e-17 0)
(3 3.46175e-16 0)
(3 3.73979e-16 0)
(3 5.69829e-16 0)
(3 5.78244e-17 0)
(3 -1.06752e-16 0)
(3 1.09677e-16 0)
(3 2.05801e-16 0)
(3 6.71436e-16 0)
(3 1.09682e-15 0)
(3 -1.21553e-16 0)
(3 -8.45717e-16 0)
(3 -4.36292e-18 0)
(3 5.01354e-20 0)
(3 8.00023e-17 0)
(3 -4.69253e-17 0)
(3 1.87948e-16 0)
(3 -2.0127e-16 0)
(3 -4.3546e-17 0)
(3 3.92984e-16 0)
(3 -1.22417e-17 0)
(3 -5.91766e-16 0)
(3 -8.5195e-16 0)
(3 -5.80111e-16 0)
(3 3.52453e-16 0)
(3 -2.04132e-16 0)
(3 -6.02304e-16 0)
(3 -4.62547e-16 0)
(3 -5.39801e-16 0)
(3 -1.25424e-15 0)
(3 -9.7161e-16 0)
(3 -1.35008e-15 0)
(3 -1.09304e-15 0)
(3 -2.72879e-16 0)
(3 4.17567e-16 0)
(3 2.62247e-16 0)
(3 3.31676e-16 0)
(3 1.25552e-15 0)
(3 1.71221e-15 0)
(3 1.90581e-15 0)
(3 1.62629e-15 0)
(3 1.55346e-15 0)
(3 1.72033e-15 0)
(3 1.78339e-15 0)
(3 1.92305e-15 0)
(3 1.9935e-15 0)
(3 1.98632e-15 0)
(3 1.55534e-15 0)
(3 6.04943e-16 0)
(3 3.54826e-16 0)
(3 6.61832e-16 0)
(3 9.54787e-16 0)
(3 9.45927e-16 0)
(3 5.44888e-16 0)
(3 2.76907e-16 0)
(3 8.8451e-16 0)
(3 6.53659e-16 0)
(3 4.30436e-16 0)
(3 -2.96109e-16 0)
(3 -8.46896e-16 0)
(3 2.57129e-17 0)
(3 -1.40987e-16 0)
(3 -4.21252e-16 0)
(3 -2.97287e-16 0)
(3 -2.84564e-16 0)
(3 6.64037e-17 0)
(3 2.51468e-17 0)
(3 -7.7871e-16 0)
(3 -9.07976e-16 0)
(3 -9.9532e-16 0)
(3 -1.88582e-15 0)
(3 -2.702e-15 0)
(3 -1.80417e-15 0)
(3 -1.77807e-15 0)
(3 -1.7568e-15 0)
(3 -1.12887e-15 0)
(3 -3.08757e-16 0)
(3 -4.97429e-16 0)
(3 -4.30175e-16 0)
(3 -2.48643e-16 0)
(3 -1.20351e-15 0)
(3 -1.70801e-15 0)
(3 -9.59564e-16 0)
(3 -2.85698e-16 0)
(3 2.67843e-17 0)
(3 2.09792e-15 0)
(3 3.20786e-15 0)
(3 2.44186e-15 0)
(3 1.40606e-15 0)
(3 1.02945e-15 0)
(3 2.5757e-15 0)
(3 2.81206e-15 0)
(3 1.37056e-15 0)
(3 1.27792e-15 0)
(3 1.33281e-15 0)
(3 1.16272e-15 0)
(3 3.98572e-16 0)
(3 3.37034e-16 0)
(3 1.12555e-15 0)
(3 1.16181e-15 0)
(3 9.75329e-16 0)
(3 9.56055e-17 0)
(3 9.30572e-18 0)
(3 3.17573e-16 0)
(3 -8.08263e-16 0)
(3 -1.90463e-15 0)
(3 -1.84032e-15 0)
(3 -1.59994e-15 0)
(3 1.51963e-16 0)
(3 2.11215e-16 0)
(3 -1.40419e-16 0)
(3 -2.30402e-16 0)
(3 2.29954e-17 0)
(3 1.20349e-15 0)
(3 1.32879e-15 0)
(3 6.62159e-16 0)
(3 1.57149e-16 0)
(3 -2.83084e-16 0)
(3 -5.96431e-16 0)
(3 -1.36057e-15 0)
(3 -2.12175e-15 0)
(3 -1.15895e-15 0)
(3 -7.9498e-16 0)
(3 -4.40222e-16 0)
(3 9.26301e-16 0)
(3 1.25564e-15 0)
(3 1.06199e-15 0)
(3 2.12067e-15 0)
(3 1.69141e-15 0)
(3 1.15169e-15 0)
(3 7.29926e-16 0)
(3 1.47043e-15 0)
(3 1.68359e-15 0)
(3 1.54725e-15 0)
(3 1.4349e-15 0)
(3 1.80996e-15 0)
(3 2.25863e-15 0)
(3 2.69404e-15 0)
(3 2.26497e-15 0)
(3 1.06858e-15 0)
(3 3.84204e-16 0)
(3 4.36183e-16 0)
(3 -2.09328e-16 0)
(3 -8.4865e-16 0)
(3 -8.35498e-16 0)
(3 -1.27664e-16 0)
(3 5.41684e-16 0)
(3 8.15588e-16 0)
(3 7.83734e-16 0)
(3 5.75977e-16 0)
(3 -5.36222e-17 0)
(3 -1.88274e-15 0)
(3 -2.93628e-15 0)
(3 -2.74876e-15 0)
(3 -1.78033e-15 0)
(3 -1.25033e-15 0)
(3 4.8275e-17 0)
(3 1.9677e-16 0)
(3 6.52247e-16 0)
(3 9.68863e-16 0)
(3 1.35182e-15 0)
(3 1.2068e-15 0)
(3 1.0703e-15 0)
(3 6.37072e-16 0)
(3 2.69044e-16 0)
(3 1.26339e-17 0)
(3 2.23404e-17 0)
(3 -2.04389e-16 0)
(3 -7.06865e-16 0)
(3 -4.54726e-16 0)
(3 -3.53894e-16 0)
(3 -4.41444e-16 0)
(3 2.90158e-16 0)
(3 1.22087e-15 0)
(3 9.7664e-16 0)
(3 1.21757e-15 0)
(3 2.09018e-15 0)
(3 2.16977e-15 0)
(3 1.67872e-15 0)
(3 1.20634e-15 0)
(3 5.97328e-16 0)
(3 1.12569e-15 0)
(3 8.31829e-16 0)
(3 1.64717e-15 0)
(3 2.59932e-15 0)
(3 2.1087e-15 0)
(3 1.43732e-15 0)
(3 -2.31026e-16 0)
(3 -5.97174e-16 0)
(3 -3.99753e-16 0)
(3 -1.87488e-16 0)
(3 4.21045e-16 0)
(3 1.09066e-15 0)
(3 7.80975e-16 0)
(3 9.44811e-17 0)
(3 -2.99065e-16 0)
(3 -7.90015e-16 0)
(3 -9.49065e-16 0)
(3 -1.4788e-15 0)
(3 -2.09538e-15 0)
(3 -1.95385e-15 0)
(3 -1.32143e-15 0)
(3 6.94844e-17 0)
(3 1.07131e-16 0)
(3 -8.24438e-17 0)
(3 -6.0635e-17 0)
(3 2.70801e-16 0)
(3 6.49049e-16 0)
(3 4.00848e-16 0)
(3 6.17523e-16 0)
(3 4.97749e-16 0)
(3 2.52595e-16 0)
(3 1.54444e-16 0)
(3 1.07242e-16 0)
(3 2.51821e-16 0)
(3 -3.00033e-17 0)
(3 -6.68023e-16 0)
(3 -1.71362e-15 0)
(3 -1.72388e-15 0)
(3 -1.41213e-15 0)
(3 -1.31848e-15 0)
(3 -6.22459e-16 0)
(3 -6.05436e-16 0)
(3 -9.47011e-18 0)
(3 2.45569e-16 0)
(3 6.43097e-16 0)
(3 9.74028e-16 0)
(3 8.74286e-16 0)
(3 7.73648e-16 0)
(3 7.59423e-16 0)
(3 1.81081e-15 0)
(3 3.09132e-15 0)
(3 4.03498e-15 0)
(3 2.85584e-15 0)
(3 1.60627e-15 0)
(3 6.11481e-16 0)
(3 -3.40874e-16 0)
(3 -8.32869e-16 0)
(3 -9.94126e-17 0)
(3 1.21408e-15 0)
(3 2.44895e-15 0)
(3 1.97693e-15 0)
(3 9.35011e-16 0)
(3 -2.15614e-16 0)
(3 -1.36156e-15 0)
(3 -2.30676e-15 0)
(3 -2.25125e-15 0)
(3 -1.87545e-15 0)
(3 -1.36939e-15 0)
(3 -7.25882e-16 0)
(3 1.39004e-16 0)
(3 1.24553e-15 0)
(3 -1.76834e-17 0)
(3 -2.36218e-16 0)
(3 -2.7095e-16 0)
(3 -2.48072e-16 0)
(3 -2.17775e-16 0)
(3 3.39663e-16 0)
(3 8.20987e-16 0)
(3 1.51752e-15 0)
(3 1.45531e-15 0)
(3 8.21697e-16 0)
(3 6.73652e-16 0)
(3 6.49907e-16 0)
(3 -3.46501e-17 0)
(3 -6.3491e-16 0)
(3 -9.32741e-16 0)
(3 -6.55096e-16 0)
(3 -7.99287e-16 0)
(3 -9.91743e-16 0)
(3 -1.16963e-15 0)
(3 -1.07627e-15 0)
(3 -8.35046e-16 0)
(3 5.50944e-16 0)
(3 1.56572e-15 0)
(3 2.18168e-15 0)
(3 2.242e-15 0)
(3 2.17429e-15 0)
(3 2.48942e-15 0)
(3 2.59691e-15 0)
(3 2.97788e-15 0)
(3 2.96313e-15 0)
(3 2.19956e-15 0)
(3 1.98813e-15 0)
(3 1.65074e-15 0)
(3 1.42347e-15 0)
(3 5.04532e-16 0)
(3 3.86264e-16 0)
(3 5.64227e-16 0)
(3 2.17701e-17 0)
(3 -1.27549e-15 0)
(3 -1.79943e-15 0)
(3 -2.15798e-15 0)
(3 -1.48303e-15 0)
(3 -1.5744e-15 0)
(3 -2.48933e-15 0)
(3 -2.153e-15 0)
(3 -1.60053e-15 0)
(3 -8.04815e-16 0)
(3 7.44191e-16 0)
(3 1.62858e-17 0)
(3 1.93482e-16 0)
(3 8.85862e-17 0)
(3 -3.96157e-17 0)
(3 -1.87698e-16 0)
(3 -1.28852e-16 0)
(3 6.60453e-16 0)
(3 1.09398e-15 0)
(3 1.1104e-15 0)
(3 9.28776e-16 0)
(3 1.1036e-15 0)
(3 1.4847e-15 0)
(3 1.41946e-15 0)
(3 2.09571e-15 0)
(3 2.40261e-15 0)
(3 2.06488e-15 0)
(3 1.54662e-15 0)
(3 1.27701e-16 0)
(3 -6.3362e-16 0)
(3 -6.4623e-16 0)
(3 1.46377e-18 0)
(3 1.19038e-15 0)
(3 2.58483e-15 0)
(3 2.53717e-15 0)
(3 2.37617e-15 0)
(3 2.6129e-15 0)
(3 3.01672e-15 0)
(3 2.23514e-15 0)
(3 1.63427e-15 0)
(3 1.37699e-15 0)
(3 1.02339e-15 0)
(3 7.85566e-16 0)
(3 1.10762e-15 0)
(3 1.85036e-15 0)
(3 1.23597e-15 0)
(3 3.8637e-16 0)
(3 -3.43225e-16 0)
(3 -1.67913e-15 0)
(3 -2.0379e-15 0)
(3 -1.99622e-15 0)
(3 -1.83917e-15 0)
(3 -1.86305e-15 0)
(3 -2.30431e-15 0)
(3 -2.98902e-15 0)
(3 -2.76209e-15 0)
(3 -2.35059e-15 0)
(3 -1.76796e-15 0)
(3 -1.41188e-15 0)
(3 -8.49479e-17 0)
(3 3.57906e-16 0)
(3 6.1637e-16 0)
(3 3.5935e-16 0)
(3 4.03029e-16 0)
(3 1.17726e-16 0)
(3 8.80816e-17 0)
(3 4.34215e-16 0)
(3 6.96581e-16 0)
(3 1.13663e-15 0)
(3 1.16572e-15 0)
(3 1.16164e-15 0)