/*--------------------------------*- C++ -*----------------------------------*\
  =========                 |
  \\      /  F ield         | OpenFOAM: The Open Source CFD Toolbox
   \\    /   O peration     | Website:  https://openfoam.org
    \\  /    A nd           | Version:  7
     \\/     M anipulation  |
\*---------------------------------------------------------------------------*/
FoamFile
{
    version     2.0;
    format      ascii;
    class       volScalarField;
    location    "3.6";
    object      p;
}
// * * * * * * * * * * * * * * * * * * * * * * * * * * * * * * * * * * * * * //

dimensions      [1 -1 -2 0 0 0 0];

internalField   nonuniform List<scalar> 
73728
(
1
1
1
1
1
1
1
1
1
1
1
1
1
1
1
1
1
1
1
1
1
1
1
1
1
1
1
1
1
1
1
1
1
1
1
1
1
1
1
1
1
1
1
1
1
1
1
1
1
1
1
1
1
1
1
1
1
1
1
1
1
1
1
1
1
1
1
1
1
1
5.93521
11.664
11.9219
11.9156
11.9039
11.8551
11.769
11.6643
11.6119
11.6315
11.7072
11.8124
11.9486
12.0608
12.1411
12.207
12.2433
12.2388
12.1822
12.0816
11.9974
11.976
12.0348
12.1667
12.3489
12.4651
1
1
1
1
1
1
1
1
1
1
1
1
1
1
1
1
1
1
1
1
1
1
1
1
1
1
1
1
1
1
1
1
1
1
1
1
1
1
1
1
1
1
1
1
1
1
1
1
1
1
1
1
1
1
1
1
1
1
1
1
1
1
1
1
1
1
1
1
1
1
5.91302
11.6615
11.9169
11.9118
11.9026
11.8517
11.7634
11.659
11.6096
11.6322
11.7084
11.8158
11.9525
12.0616
12.1401
12.202
12.2339
12.2278
12.1712
12.0738
11.9878
11.9542
12.0145
12.1296
12.2974
12.4368
1
1
1
1
1
1
1
1
1
1
1
1
1
1
1
1
1
1
1
1
1
1
1
1
1
1
1
1
1
1
1
1
1
1
1
1
1
1
1
1
1
1
1
1
1
1
1
1
1
1
1
1
1
1
1
1
1
1
1
1
1
1
1
1
1
1
1
1
1
1
5.86606
11.6616
11.9104
11.9032
11.8983
11.8449
11.7535
11.6499
11.6049
11.6321
11.7089
11.82
11.9578
12.0635
12.1378
12.1924
12.2182
12.2096
12.1533
12.0596
11.9719
11.9256
11.9849
12.0911
12.2299
12.3536
1
1
1
1
1
1
1
1
1
1
1
1
1
1
1
1
1
1
1
1
1
1
1
1
1
1
1
1
1
1
1
1
1
1
1
1
1
1
1
1
1
1
1
1
1
1
1
1
1
1
1
1
1
1
1
1
1
1
1
1
1
1
1
1
1
1
1
1
1
1
5.79649
11.661
11.9049
11.8934
11.8914
11.8346
11.7385
11.6365
11.5987
11.632
11.7093
11.8252
11.9644
12.0665
12.1347
12.1798
12.1963
12.1822
12.1249
12.0329
11.9471
11.9042
11.9609
12.0585
12.1748
12.2815
1
1
1
1
1
1
1
1
1
1
1
1
1
1
1
1
1
1
1
1
1
1
1
1
1
1
1
1
1
1
1
1
1
1
1
1
1
1
1
1
1
1
1
1
1
1
1
1
1
1
1
1
1
1
1
1
1
1
1
1
1
1
1
1
1
1
1
1
1
1
5.70523
11.657
11.8998
11.8828
11.8815
11.8199
11.7179
11.6199
11.5923
11.6318
11.7099
11.8321
11.9719
12.0696
12.1311
12.1658
12.1712
12.1482
12.0867
11.9931
11.9134
11.889
11.9435
12.036
12.1436
12.2353
1
1
1
1
1
1
1
1
1
1
1
1
1
1
1
1
1
1
1
1
1
1
1
1
1
1
1
1
1
1
1
1
1
1
1
1
1
1
1
1
1
1
1
1
1
1
1
1
1
1
1
1
1
1
1
1
1
1
1
1
1
1
1
1
1
1
1
1
1
1
5.59121
11.6494
11.895
11.8714
11.868
11.7993
11.6919
11.6022
11.5874
11.6321
11.7128
11.8414
11.9797
12.0717
12.1265
12.1511
12.1452
12.1107
12.0402
11.9419
11.8709
11.8708
11.9292
12.021
12.1271
12.213
1
1
1
1
1
1
1
1
1
1
1
1
1
1
1
1
1
1
1
1
1
1
1
1
1
1
1
1
1
1
1
1
1
1
1
1
1
1
1
1
1
1
1
1
1
1
1
1
1
1
1
1
1
1
1
1
1
1
1
1
1
1
1
1
1
1
1
1
1
1
5.45552
11.6361
11.89
11.8584
11.8504
11.7726
11.6621
11.5849
11.5852
11.6334
11.7182
11.853
11.9858
12.071
12.1203
12.1364
12.1201
12.0733
11.9884
11.8828
11.8224
11.844
11.9098
12.0048
12.1131
12.2002
1
1
1
1
1
1
1
1
1
1
1
1
1
1
1
1
1
1
1
1
1
1
1
1
1
1
1
1
1
1
1
1
1
1
1
1
1
1
1
1
1
1
1
1
1
1
1
1
1
1
1
1
1
1
1
1
1
1
1
1
1
1
1
1
1
1
1
1
1
1
5.2998
11.615
11.8835
11.8434
11.8282
11.7392
11.6294
11.5701
11.5862
11.6375
11.7287
11.867
11.9892
12.0659
12.1106
12.1208
12.0958
12.0374
11.9358
11.8233
11.7757
11.8096
11.8803
11.9799
12.0922
12.1826
1
1
1
1
1
1
1
1
1
1
1
1
1
1
1
1
1
1
1
1
1
1
1
1
1
1
1
1
1
1
1
1
1
1
1
1
1
1
1
1
1
1
1
1
1
1
1
1
1
1
1
1
1
1
1
1
1
1
1
1
1
1
1
1
1
1
1
1
1
1
5.12583
11.5834
11.8758
11.8265
11.8006
11.6987
11.596
11.5591
11.5894
11.6465
11.7463
11.8835
11.9895
12.0556
12.0951
12.102
12.0714
12.0015
11.884
11.7703
11.74
11.7771
11.8456
11.9484
12.0625
12.15
1
1
1
1
1
1
1
1
1
1
1
1
1
1
1
1
1
1
1
1
1
1
1
1
1
1
1
1
1
1
1
1
1
1
1
1
1
1
1
1
1
1
1
1
1
1
1
1
1
1
1
1
1
1
1
1
1
1
1
1
1
1
1
1
1
1
1
1
1
1
4.93512
11.5384
11.8674
11.8074
11.766
11.6526
11.5647
11.5528
11.5943
11.6618
11.7714
11.9019
11.9877
12.0407
12.0733
12.0771
12.0425
11.9623
11.8333
11.7288
11.7174
11.754
11.8204
11.923
12.0327
12.1061
1
1
1
1
1
1
1
1
1
1
1
1
1
1
1
1
1
1
1
1
1
1
1
1
1
1
1
1
1
1
1
1
1
1
1
1
1
1
1
1
1
1
1
1
1
1
1
1
1
1
1
1
1
1
1
1
1
1
1
1
1
1
1
1
1
1
1
1
1
1
4.72886
11.4763
11.8596
11.7849
11.723
11.6052
11.5391
11.5504
11.6013
11.6829
11.803
11.9211
11.9855
12.0234
12.0461
12.0443
12.0045
11.9142
11.7821
11.6994
11.7045
11.7409
11.8098
11.913
12.0141
12.0655
1
1
1
1
1
1
1
1
1
1
1
1
1
1
1
1
1
1
1
1
1
1
1
1
1
1
1
1
1
1
1
1
1
1
1
1
1
1
1
1
1
1
1
1
1
1
1
1
1
1
1
1
1
1
1
1
1
1
1
1
1
1
1
1
1
1
1
1
1
1
4.5076
11.3947
11.8524
11.7557
11.672
11.5621
11.5237
11.5506
11.6111
11.7099
11.8388
11.9386
11.9834
12.0069
12.017
12.0048
11.9555
11.8526
11.7275
11.6794
11.6953
11.7368
11.8131
11.9195
12.0082
12.0391
1
1
1
1
1
1
1
1
1
1
1
1
1
1
1
1
1
1
1
1
1
1
1
1
1
1
1
1
1
1
1
1
1
1
1
1
1
1
1
1
1
1
1
1
1
1
1
1
1
1
1
1
1
1
1
1
1
1
1
1
1
1
1
1
1
1
1
1
1
1
4.27466
11.2943
11.8376
11.7162
11.6173
11.5297
11.5186
11.553
11.6254
11.7429
11.8736
11.9514
11.9814
11.9919
11.9884
11.962
11.8971
11.7783
11.6744
11.6605
11.684
11.7368
11.8262
11.9361
12.0084
12.0253
1
1
1
1
1
1
1
1
1
1
1
1
1
1
1
1
1
1
1
1
1
1
1
1
1
1
1
1
1
1
1
1
1
1
1
1
1
1
1
1
1
1
1
1
1
1
1
1
1
1
1
1
1
1
1
1
1
1
1
1
1
1
1
1
1
1
1
1
1
1
4.03283
11.1727
11.8089
11.6661
11.5664
11.5123
11.5202
11.5606
11.6479
11.7816
11.901
11.9577
11.978
11.9778
11.9606
11.9185
11.8296
11.703
11.6324
11.6377
11.6685
11.7341
11.839
11.9497
12.0057
12.0145
1
1
1
1
1
1
1
1
1
1
1
1
1
1
1
1
1
1
1
1
1
1
1
1
1
1
1
1
1
1
1
1
1
1
1
1
1
1
1
1
1
1
1
1
1
1
1
1
1
1
1
1
1
1
1
1
1
1
1
1
1
1
1
1
1
1
1
1
1
1
3.78305
11.0263
11.7642
11.6079
11.5266
11.5086
11.5273
11.5774
11.6835
11.822
11.9164
11.9574
11.9704
11.962
11.9326
11.8717
11.7594
11.6403
11.6061
11.6157
11.6524
11.7304
11.8477
11.9498
11.9905
11.9952
1
1
1
1
1
1
1
1
1
1
1
1
1
1
1
1
1
1
1
1
1
1
1
1
1
1
1
1
1
1
1
1
1
1
1
1
1
1
1
1
1
1
1
1
1
1
1
1
1
1
1
1
1
1
1
1
1
1
1
1
1
1
1
1
1
1
1
1
1
1
3.52496
10.8507
11.7026
11.5501
11.503
11.5113
11.5404
11.6085
11.7338
11.8567
11.9208
11.9499
11.9563
11.9405
11.8997
11.8162
11.6901
11.5998
11.59
11.601
11.645
11.7346
11.8551
11.9358
11.9604
11.9617
1
1
1
1
1
1
1
1
1
1
1
1
1
1
1
1
1
1
1
1
1
1
1
1
1
1
1
1
1
1
1
1
1
1
1
1
1
1
1
1
1
1
1
1
1
1
1
1
1
1
1
1
1
1
1
1
1
1
1
1
1
1
1
1
1
1
1
1
1
1
3.2572
10.6396
11.6274
11.5061
11.4956
11.5167
11.5622
11.6584
11.7917
11.8801
11.9187
11.9366
11.9345
11.9095
11.8514
11.7482
11.6273
11.5794
11.5791
11.5978
11.6532
11.7544
11.8658
11.9168
11.9256
11.92
1
1
1
1
1
1
1
1
1
1
1
1
1
1
1
1
1
1
1
1
1
1
1
1
1
1
1
1
1
1
1
1
1
1
1
1
1
1
1
1
1
1
1
1
1
1
1
1
1
1
1
1
1
1
1
1
1
1
1
1
1
1
1
1
1
1
1
1
1
1
2.98064
10.3877
11.5527
11.4829
11.4959
11.525
11.5984
11.7257
11.8414
11.8928
11.9148
11.92
11.9054
11.865
11.7887
11.67
11.5795
11.566
11.5724
11.6056
11.6784
11.7888
11.878
11.9027
11.8975
11.8805
1
1
1
1
1
1
1
1
1
1
1
1
1
1
1
1
1
1
1
1
1
1
1
1
1
1
1
1
1
1
1
1
1
1
1
1
1
1
1
1
1
1
1
1
1
1
1
1
1
1
1
1
1
1
1
1
1
1
1
1
1
1
1
1
1
1
1
1
1
1
2.69662
10.0898
11.4954
11.4775
11.4975
11.5442
11.6562
11.7952
11.8708
11.8999
11.9096
11.9009
11.8705
11.8123
11.7122
11.5947
11.5491
11.5499
11.5687
11.6208
11.7151
11.8265
11.8854
11.8927
11.8776
11.8469
1
1
1
1
1
1
1
1
1
1
1
1
1
1
1
1
1
1
1
1
1
1
1
1
1
1
1
1
1
1
1
1
1
1
1
1
1
1
1
1
1
1
1
1
1
1
1
1
1
1
1
1
1
1
1
1
1
1
1
1
1
1
1
1
1
1
1
1
1
1
2.40892
9.751
11.4639
11.4769
11.5109
11.5876
11.7315
11.8444
11.8836
11.902
11.9006
11.8769
11.83
11.7495
11.6305
11.5434
11.5285
11.5343
11.5684
11.6429
11.7556
11.8511
11.8834
11.8808
11.8577
11.8134
1
1
1
1
1
1
1
1
1
1
1
1
1
1
1
1
1
1
1
1
1
1
1
1
1
1
1
1
1
1
1
1
1
1
1
1
1
1
1
1
1
1
1
1
1
1
1
1
1
1
1
1
1
1
1
1
1
1
1
1
1
1
1
1
1
1
1
1
1
1
2.12676
9.37194
11.4499
11.4869
11.5478
11.6605
11.8025
11.8674
11.8875
11.8966
11.8814
11.8432
11.7798
11.6762
11.5603
11.517
11.5121
11.5271
11.5784
11.6755
11.7911
11.8558
11.8684
11.8593
11.8289
11.7707
1
1
1
1
1
1
1
1
1
1
1
1
1
1
1
1
1
1
1
1
1
1
1
1
1
1
1
1
1
1
1
1
1
1
1
1
1
1
1
1
1
1
1
1
1
1
1
1
1
1
1
1
1
1
1
1
1
1
1
1
1
1
1
1
1
1
1
1
1
1
1.85968
8.95944
11.4534
11.5161
11.6162
11.7495
11.8471
11.8762
11.8853
11.8795
11.8489
11.7985
11.7149
11.5977
11.5192
11.5036
11.5042
11.5343
11.6077
11.7204
11.8136
11.8437
11.842
11.8255
11.7868
11.7158
1
1
1
1
1
1
1
1
1
1
1
1
1
1
1
1
1
1
1
1
1
1
1
1
1
1
1
1
1
1
1
1
1
1
1
1
1
1
1
1
1
1
1
1
1
1
1
1
1
1
1
1
1
1
1
1
1
1
1
1
1
1
1
1
1
1
1
1
1
1
1.61838
8.52419
11.4744
11.577
11.706
11.8251
11.8667
11.8805
11.8757
11.8511
11.8074
11.74
11.6354
11.5303
11.4991
11.4936
11.5084
11.5607
11.6595
11.7695
11.8213
11.8245
11.8098
11.7821
11.7307
11.6402
1
1
1
1
1
1
1
1
1
1
1
1
1
1
1
1
1
1
1
1
1
1
1
1
1
1
1
1
1
1
1
1
1
1
1
1
1
1
1
1
1
1
1
1
1
1
1
1
1
1
1
1
1
1
1
1
1
1
1
1
1
1
1
1
1
1
1
1
1
1
1.41034
8.08799
11.5179
11.6592
11.791
11.8679
11.875
11.8792
11.8576
11.8163
11.7573
11.6674
11.5538
11.4947
11.4837
11.4889
11.5256
11.6074
11.7242
11.8041
11.8195
11.8048
11.7768
11.7339
11.6615
11.5487
1
1
1
1
1
1
1
1
1
1
1
1
1
1
1
1
1
1
1
1
1
1
1
1
1
1
1
1
1
1
1
1
1
1
1
1
1
1
1
1
1
1
1
1
1
1
1
1
1
1
1
1
1
1
1
1
1
1
1
1
1
1
1
1
1
1
1
1
1
1
1.23757
7.66663
11.5824
11.7454
11.8495
11.8818
11.8776
11.8671
11.8308
11.7762
11.6979
11.5876
11.4965
11.475
11.4715
11.4942
11.5585
11.6698
11.7779
11.8171
11.81
11.7846
11.7444
11.6827
11.5839
11.4666
1
1
1
1
1
1
1
1
1
1
1
1
1
1
1
1
1
1
1
1
1
1
1
1
1
1
1
1
1
1
1
1
1
1
1
1
1
1
1
1
1
1
1
1
1
1
1
1
1
1
1
1
1
1
1
1
1
1
1
1
1
1
1
1
1
1
1
1
1
1
1.09933
7.26748
11.6505
11.8168
11.8744
11.8841
11.8664
11.8428
11.7951
11.7278
11.6273
11.5181
11.4741
11.4617
11.4706
11.5162
11.6119
11.7332
11.8024
11.8107
11.7926
11.7598
11.7075
11.622
11.5049
11.4181
1
1
1
1
1
1
1
1
1
1
1
1
1
1
1
1
1
1
1
1
1
1
1
1
1
1
1
1
1
1
1
1
1
1
1
1
1
1
1
1
1
1
1
1
1
1
1
1
1
1
1
1
1
1
1
1
1
1
1
1
1
1
1
1
1
1
1
1
1
1
1.00769
6.87929
11.6908
11.8691
11.8782
11.875
11.8411
11.807
11.7501
11.6641
11.5521
11.4817
11.4634
11.4607
11.4889
11.5644
11.6819
11.775
11.8003
11.7908
11.766
11.725
11.6553
11.5453
11.4386
11.3935
1
1
1
1
1
1
1
1
1
1
1
1
1
1
1
1
1
1
1
1
1
1
1
1
1
1
1
1
1
1
1
1
1
1
1
1
1
1
1
1
1
1
1
1
1
1
1
1
1
1
1
1
1
1
1
1
1
1
1
1
1
1
1
1
1
1
1
1
1
1
1
6.46404
11.7101
11.9022
11.8698
11.8509
11.8069
11.7631
11.6902
11.5853
11.4947
11.4696
11.4603
11.4763
11.5337
11.6405
11.7477
11.7887
11.7834
11.7626
11.7288
11.6725
11.5784
11.4609
11.3977
11.3727
1
1
1
1
1
1
1
1
1
1
1
1
1
1
1
1
1
1
1
1
1
1
1
1
1
1
1
1
1
1
1
1
1
1
1
1
1
1
1
1
1
1
1
1
1
1
1
1
1
1
1
1
1
1
1
1
1
1
1
1
1
1
1
1
1
1
1
1
1
1
1
6.06433
11.7177
11.9052
11.849
11.8223
11.7721
11.7089
11.6134
11.511
11.4701
11.4596
11.4686
11.513
11.6084
11.725
11.7847
11.785
11.762
11.7302
11.6802
11.5978
11.4837
11.3969
11.3673
11.3545
1
1
1
1
1
1
1
1
1
1
1
1
1
1
1
1
1
1
1
1
1
1
1
1
1
1
1
1
1
1
1
1
1
1
1
1
1
1
1
1
1
1
1
1
1
1
1
1
1
1
1
1
1
1
1
1
1
1
1
1
1
1
1
1
1
1
1
1
1
1
1
5.67172
11.7077
11.8912
11.8239
11.7951
11.7316
11.6424
11.5346
11.4702
11.455
11.4581
11.4926
11.5761
11.6983
11.7815
11.7945
11.7727
11.7404
11.6931
11.6175
11.5069
11.403
11.3598
11.3414
11.3443
1
1
1
1
1
1
1
1
1
1
1
1
1
1
1
1
1
1
1
1
1
1
1
1
1
1
1
1
1
1
1
1
1
1
1
1
1
1
1
1
1
1
1
1
1
1
1
1
1
1
1
1
1
1
1
1
1
1
1
1
1
1
1
1
1
1
1
1
1
1
1
5.28266
11.6599
11.8708
11.7967
11.7638
11.679
11.5687
11.482
11.4546
11.4484
11.4722
11.5418
11.6609
11.7681
11.8003
11.787
11.7565
11.7125
11.6431
11.5383
11.4226
11.3607
11.3353
11.3305
11.3503
1
1
1
1
1
1
1
1
1
1
1
1
1
1
1
1
1
1
1
1
1
1
1
1
1
1
1
1
1
1
1
1
1
1
1
1
1
1
1
1
1
1
1
1
1
1
1
1
1
1
1
1
1
1
1
1
1
1
1
1
1
1
1
1
1
1
1
1
1
1
1
4.89643
11.5653
11.8466
11.7686
11.7216
11.6116
11.5079
11.4644
11.4484
11.4596
11.5134
11.6212
11.7422
11.7964
11.794
11.7688
11.73
11.6675
11.5706
11.4519
11.372
11.341
11.3254
11.3394
11.3848
1
1
1
1
1
1
1
1
1
1
1
1
1
1
1
1
1
1
1
1
1
1
1
1
1
1
1
1
1
1
1
1
1
1
1
1
1
1
1
1
1
1
1
1
1
1
1
1
1
1
1
1
1
1
1
1
1
1
1
1
1
1
1
1
1
1
1
1
1
1
1
4.50878
11.4223
11.828
11.737
11.6574
11.5414
11.4817
11.4587
11.4592
11.4985
11.5917
11.7153
11.7878
11.7952
11.7737
11.7397
11.6837
11.5955
11.4793
11.3858
11.3491
11.3299
11.3351
11.3766
11.4546
1
1
1
1
1
1
1
1
1
1
1
1
1
1
1
1
1
1
1
1
1
1
1
1
1
1
1
1
1
1
1
1
1
1
1
1
1
1
1
1
1
1
1
1
1
1
1
1
1
1
1
1
1
1
1
1
1
1
1
1
1
1
1
1
1
1
1
1
1
1
1
4.12364
11.2373
11.8091
11.6888
11.5793
11.5003
11.4728
11.4656
11.4947
11.5742
11.696
11.7838
11.7999
11.7798
11.7468
11.6947
11.6129
11.5006
11.3974
11.3525
11.3327
11.3339
11.3676
11.4462
11.5439
1
1
1
1
1
1
1
1
1
1
1
1
1
1
1
1
1
1
1
1
1
1
1
1
1
1
1
1
1
1
1
1
1
1
1
1
1
1
1
1
1
1
1
1
1
1
1
1
1
1
1
1
1
1
1
1
1
1
1
1
1
1
1
1
1
1
1
1
1
1
1
3.74564
11.0109
11.7712
11.6245
11.5251
11.4884
11.4748
11.4937
11.5628
11.6798
11.7831
11.8113
11.7943
11.7609
11.7102
11.632
11.5222
11.4104
11.3531
11.331
11.3286
11.3566
11.4281
11.5343
11.612
1
1
1
1
1
1
1
1
1
1
1
1
1
1
1
1
1
1
1
1
1
1
1
1
1
1
1
1
1
1
1
1
1
1
1
1
1
1
1
1
1
1
1
1
1
1
1
1
1
1
1
1
1
1
1
1
1
1
1
1
1
1
1
1
1
1
1
1
1
1
1
3.37032
10.7364
11.7082
11.5678
11.5126
11.4883
11.4966
11.5534
11.6629
11.778
11.8233
11.8131
11.7813
11.7331
11.6583
11.5513
11.4326
11.3595
11.332
11.3227
11.3436
11.4072
11.5119
11.606
11.6373
1
1
1
1
1
1
1
1
1
1
1
1
1
1
1
1
1
1
1
1
1
1
1
1
1
1
1
1
1
1
1
1
1
1
1
1
1
1
1
1
1
1
1
1
1
1
1
1
1
1
1
1
1
1
1
1
1
1
1
1
1
1
1
1
1
1
1
1
1
1
1
2.99535
10.4106
11.6382
11.5449
11.515
11.5104
11.5522
11.6497
11.769
11.8316
11.8304
11.8017
11.7567
11.6866
11.5849
11.4636
11.3756
11.3413
11.3241
11.3364
11.3897
11.4895
11.5935
11.6377
11.633
1
1
1
1
1
1
1
1
1
1
1
1
1
1
1
1
1
1
1
1
1
1
1
1
1
1
1
1
1
1
1
1
1
1
1
1
1
1
1
1
1
1
1
1
1
1
1
1
1
1
1
1
1
1
1
1
1
1
1
1
1
1
1
1
1
1
1
1
1
1
1
2.6216
10.0209
11.5902
11.546
11.5351
11.5646
11.6488
11.7646
11.8401
11.848
11.8203
11.777
11.7109
11.6157
11.496
11.3964
11.3546
11.3338
11.338
11.3812
11.4735
11.5837
11.6415
11.6408
11.6097
1
1
1
1
1
1
1
1
1
1
1
1
1
1
1
1
1
1
1
1
1
1
1
1
1
1
1
1
1
1
1
1
1
1
1
1
1
1
1
1
1
1
1
1
1
1
1
1
1
1
1
1
1
1
1
1
1
1
1
1
1
1
1
1
1
1
1
1
1
1
1
2.25914
9.57463
11.5707
11.5652
11.5871
11.6586
11.7708
11.8544
11.872
11.846
11.7994
11.734
11.6428
11.5263
11.4173
11.3654
11.3439
11.3431
11.3783
11.463
11.5776
11.6498
11.6571
11.6283
11.5821
1
1
1
1
1
1
1
1
1
1
1
1
1
1
1
1
1
1
1
1
1
1
1
1
1
1
1
1
1
1
1
1
1
1
1
1
1
1
1
1
1
1
1
1
1
1
1
1
1
1
1
1
1
1
1
1
1
1
1
1
1
1
1
1
1
1
1
1
1
1
1
1.92441
9.09064
11.5806
11.6091
11.6733
11.7774
11.8737
11.9036
11.8818
11.8339
11.7658
11.6754
11.5599
11.4421
11.3745
11.3496
11.3447
11.3735
11.4507
11.5678
11.6573
11.6767
11.6545
11.6102
11.5503
1
1
1
1
1
1
1
1
1
1
1
1
1
1
1
1
1
1
1
1
1
1
1
1
1
1
1
1
1
1
1
1
1
1
1
1
1
1
1
1
1
1
1
1
1
1
1
1
1
1
1
1
1
1
1
1
1
1
1
1
1
1
1
1
1
1
1
1
1
1
1
1.63377
8.58914
11.6129
11.6883
11.781
11.884
11.9333
11.9239
11.8775
11.8106
11.7207
11.606
11.4797
11.3913
11.3573
11.3436
11.3648
11.4328
11.5481
11.6552
11.692
11.6794
11.6407
11.5857
11.5019
1
1
1
1
1
1
1
1
1
1
1
1
1
1
1
1
1
1
1
1
1
1
1
1
1
1
1
1
1
1
1
1
1
1
1
1
1
1
1
1
1
1
1
1
1
1
1
1
1
1
1
1
1
1
1
1
1
1
1
1
1
1
1
1
1
1
1
1
1
1
1
1.39654
8.10267
11.668
11.7848
11.8801
11.9525
11.957
11.9235
11.86
11.775
11.6644
11.5341
11.4254
11.3754
11.35
11.3591
11.4139
11.5211
11.6409
11.6982
11.6967
11.665
11.617
11.5403
11.425
1
1
1
1
1
1
1
1
1
1
1
1
1
1
1
1
1
1
1
1
1
1
1
1
1
1
1
1
1
1
1
1
1
1
1
1
1
1
1
1
1
1
1
1
1
1
1
1
1
1
1
1
1
1
1
1
1
1
1
1
1
1
1
1
1
1
1
1
1
1
1
1.21179
7.65065
11.7341
11.8736
11.9533
11.984
11.9554
11.9062
11.8273
11.7252
11.5986
11.4754
11.4059
11.3713
11.3649
11.4032
11.4961
11.6194
11.6972
11.7077
11.6818
11.6388
11.5727
11.4639
11.3263
1
1
1
1
1
1
1
1
1
1
1
1
1
1
1
1
1
1
1
1
1
1
1
1
1
1
1
1
1
1
1
1
1
1
1
1
1
1
1
1
1
1
1
1
1
1
1
1
1
1
1
1
1
1
1
1
1
1
1
1
1
1
1
1
1
1
1
1
1
1
1
1.07563
7.2372
11.7878
11.9399
11.9964
11.9853
11.9374
11.8727
11.779
11.6621
11.5333
11.4435
11.4025
11.3825
11.4047
11.4795
11.598
11.6934
11.7185
11.6981
11.6567
11.5979
11.5028
11.3643
11.2386
1
1
1
1
1
1
1
1
1
1
1
1
1
1
1
1
1
1
1
1
1
1
1
1
1
1
1
1
1
1
1
1
1
1
1
1
1
1
1
1
1
1
1
1
1
1
1
1
1
1
1
1
1
1
1
1
1
1
1
1
1
1
1
1
1
1
1
1
1
1
1
1.00164
6.84368
11.8057
11.9875
12.0073
11.9715
11.9062
11.8257
11.719
11.5928
11.4842
11.4333
11.4055
11.413
11.4693
11.5772
11.6864
11.7314
11.7196
11.6793
11.6249
11.5409
11.4139
11.2715
11.1897
1
1
1
1
1
1
1
1
1
1
1
1
1
1
1
1
1
1
1
1
1
1
1
1
1
1
1
1
1
1
1
1
1
1
1
1
1
1
1
1
1
1
1
1
1
1
1
1
1
1
1
1
1
1
1
1
1
1
1
1
1
1
1
1
1
1
1
1
1
1
1
1
6.45276
11.7985
12.0174
11.9933
11.9462
11.8654
11.772
11.653
11.5308
11.4599
11.4275
11.4214
11.46
11.5526
11.6704
11.74
11.744
11.7088
11.6577
11.5835
11.4698
11.3244
11.2142
11.168
1
1
1
1
1
1
1
1
1
1
1
1
1
1
1
1
1
1
1
1
1
1
1
1
1
1
1
1
1
1
1
1
1
1
1
1
1
1
1
1
1
1
1
1
1
1
1
1
1
1
1
1
1
1
1
1
1
1
1
1
1
1
1
1
1
1
1
1
1
1
1
1
6.09602
11.7772
12.03
11.9647
11.9096
11.8207
11.715
11.5879
11.4903
11.4486
11.4289
11.4501
11.5229
11.6397
11.7351
11.7631
11.7401
11.6922
11.6275
11.5291
11.3907
11.2566
11.191
11.1569
1
1
1
1
1
1
1
1
1
1
1
1
1
1
1
1
1
1
1
1
1
1
1
1
1
1
1
1
1
1
1
1
1
1
1
1
1
1
1
1
1
1
1
1
1
1
1
1
1
1
1
1
1
1
1
1
1
1
1
1
1
1
1
1
1
1
1
1
1
1
1
1
5.76246
11.7613
12.0115
11.9252
11.8689
11.7738
11.6542
11.5345
11.4718
11.4411
11.4433
11.4929
11.5963
11.7119
11.7694
11.7659
11.7242
11.6678
11.5849
11.4616
11.3165
11.2204
11.1808
11.156
1
1
1
1
1
1
1
1
1
1
1
1
1
1
1
1
1
1
1
1
1
1
1
1
1
1
1
1
1
1
1
1
1
1
1
1
1
1
1
1
1
1
1
1
1
1
1
1
1
1
1
1
1
1
1
1
1
1
1
1
1
1
1
1
1
1
1
1
1
1
1
1
5.45844
11.729
11.9752
11.881
11.8254
11.7207
11.5932
11.5009
11.461
11.444
11.4701
11.5499
11.6703
11.7598
11.782
11.7538
11.7026
11.6331
11.5291
11.3878
11.2617
11.2038
11.1732
11.164
1
1
1
1
1
1
1
1
1
1
1
1
1
1
1
1
1
1
1
1
1
1
1
1
1
1
1
1
1
1
1
1
1
1
1
1
1
1
1
1
1
1
1
1
1
1
1
1
1
1
1
1
1
1
1
1
1
1
1
1
1
1
1
1
1
1
1
1
1
1
1
1
5.18324
11.6783
11.9389
11.8371
11.7766
11.6597
11.5404
11.4824
11.4528
11.4573
11.5094
11.6161
11.7322
11.7872
11.7803
11.735
11.6762
11.5904
11.4648
11.3207
11.2296
11.1911
11.168
11.1781
1
1
1
1
1
1
1
1
1
1
1
1
1
1
1
1
1
1
1
1
1
1
1
1
1
1
1
1
1
1
1
1
1
1
1
1
1
1
1
1
1
1
1
1
1
1
1
1
1
1
1
1
1
1
1
1
1
1
1
1
1
1
1
1
1
1
1
1
1
1
1
1
4.93534
11.6151
11.9042
11.7946
11.7223
11.5965
11.5029
11.4665
11.4508
11.4779
11.5583
11.6818
11.7754
11.799
11.7697
11.7176
11.6475
11.5429
11.4002
11.272
11.2116
11.1782
11.1684
11.1975
1
1
1
1
1
1
1
1
1
1
1
1
1
1
1
1
1
1
1
1
1
1
1
1
1
1
1
1
1
1
1
1
1
1
1
1
1
1
1
1
1
1
1
1
1
1
1
1
1
1
1
1
1
1
1
1
1
1
1
1
1
1
1
1
1
1
1
1
1
1
1
1
4.71222
11.5427
11.8727
11.7537
11.6652
11.5409
11.4783
11.4501
11.4544
11.5049
11.6111
11.7354
11.8008
11.7997
11.7569
11.7001
11.6172
11.4931
11.3447
11.2446
11.1999
11.1705
11.1763
11.2256
1
1
1
1
1
1
1
1
1
1
1
1
1
1
1
1
1
1
1
1
1
1
1
1
1
1
1
1
1
1
1
1
1
1
1
1
1
1
1
1
1
1
1
1
1
1
1
1
1
1
1
1
1
1
1
1
1
1
1
1
1
1
1
1
1
1
1
1
1
1
1
1
4.51097
11.4627
11.8459
11.7139
11.6102
11.5005
11.4586
11.4391
11.4619
11.5367
11.6607
11.7715
11.811
11.7913
11.7441
11.6805
11.5835
11.4432
11.3045
11.2325
11.1932
11.1734
11.1953
11.2652
1
1
1
1
1
1
1
1
1
1
1
1
1
1
1
1
1
1
1
1
1
1
1
1
1
1
1
1
1
1
1
1
1
1
1
1
1
1
1
1
1
1
1
1
1
1
1
1
1
1
1
1
1
1
1
1
1
1
1
1
1
1
1
1
1
1
1
1
1
1
1
1
4.32869
11.3786
11.8215
11.675
11.5628
11.4757
11.4417
11.4348
11.4751
11.5708
11.7016
11.7911
11.8088
11.7772
11.7281
11.6568
11.5449
11.3964
11.2803
11.2279
11.1935
11.1879
11.2271
11.3169
1
1
1
1
1
1
1
1
1
1
1
1
1
1
1
1
1
1
1
1
1
1
1
1
1
1
1
1
1
1
1
1
1
1
1
1
1
1
1
1
1
1
1
1
1
1
1
1
1
1
1
1
1
1
1
1
1
1
1
1
1
1
1
1
1
1
1
1
1
1
1
1
4.16449
11.2949
11.794
11.6374
11.5258
11.4601
11.4303
11.4364
11.4934
11.605
11.7316
11.7986
11.7983
11.7602
11.7086
11.6279
11.5023
11.356
11.2672
11.2264
11.2004
11.2107
11.2695
11.3764
1
1
1
1
1
1
1
1
1
1
1
1
1
1
1
1
1
1
1
1
1
1
1
1
1
1
1
1
1
1
1
1
1
1
1
1
1
1
1
1
1
1
1
1
1
1
1
1
1
1
1
1
1
1
1
1
1
1
1
1
1
1
1
1
1
1
1
1
1
1
1
1
4.01897
11.2133
11.7626
11.6031
11.498
11.4481
11.4237
11.4427
11.5158
11.6378
11.7526
11.7989
11.7844
11.7435
11.6866
11.5951
11.4586
11.3241
11.2591
11.2252
11.2116
11.2371
11.3168
11.436
1
1
1
1
1
1
1
1
1
1
1
1
1
1
1
1
1
1
1
1
1
1
1
1
1
1
1
1
1
1
1
1
1
1
1
1
1
1
1
1
1
1
1
1
1
1
1
1
1
1
1
1
1
1
1
1
1
1
1
1
1
1
1
1
1
1
1
1
1
1
1
1
3.89206
11.136
11.7302
11.5724
11.4768
11.4369
11.4199
11.4523
11.5401
11.6674
11.7678
11.7964
11.7724
11.7287
11.6648
11.5612
11.4177
11.3002
11.2518
11.2235
11.2224
11.2636
11.3627
11.4881
1
1
1
1
1
1
1
1
1
1
1
1
1
1
1
1
1
1
1
1
1
1
1
1
1
1
1
1
1
1
1
1
1
1
1
1
1
1
1
1
1
1
1
1
1
1
1
1
1
1
1
1
1
1
1
1
1
1
1
1
1
1
1
1
1
1
1
1
1
1
1
1
3.78334
11.0652
11.6997
11.5456
11.46
11.425
11.4179
11.4634
11.5635
11.6924
11.7791
11.7942
11.7638
11.717
11.6452
11.5294
11.3831
11.2831
11.2448
11.2216
11.2315
11.2877
11.4028
11.5278
1
1
1
1
1
1
1
1
1
1
1
1
1
1
1
1
1
1
1
1
1
1
1
1
1
1
1
1
1
1
1
1
1
1
1
1
1
1
1
1
1
1
1
1
1
1
1
1
1
1
1
1
1
1
1
1
1
1
1
1
1
1
1
1
1
1
1
1
1
1
1
1
3.69179
11.0028
11.673
11.5227
11.4466
11.4138
11.4171
11.4744
11.584
11.7115
11.7868
11.7922
11.7579
11.708
11.6282
11.5017
11.3564
11.272
11.2386
11.221
11.2399
11.3092
11.4356
11.5545
1
1
1
1
1
1
1
1
1
1
1
1
1
1
1
1
1
1
1
1
1
1
1
1
1
1
1
1
1
1
1
1
1
1
1
1
1
1
1
1
1
1
1
1
1
1
1
1
1
1
1
1
1
1
1
1
1
1
1
1
1
1
1
1
1
1
1
1
1
1
1
1
3.61601
10.9492
11.6515
11.5049
11.4361
11.4057
11.4175
11.4845
11.6003
11.7242
11.7904
11.7891
11.7527
11.7001
11.613
11.4781
11.3372
11.2658
11.2348
11.223
11.2493
11.3296
11.4629
11.5729
1
1
1
1
1
1
1
1
1
1
1
1
1
1
1
1
1
1
1
1
1
1
1
1
1
1
1
1
1
1
1
1
1
1
1
1
1
1
1
1
1
1
1
1
1
1
1
1
1
1
1
1
1
1
1
1
1
1
1
1
1
1
1
1
1
1
1
1
1
1
1
1
3.55458
10.9048
11.6354
11.4925
11.4296
11.4015
11.4198
11.4937
11.6122
11.7306
11.7895
11.784
11.7467
11.6918
11.5989
11.4584
11.3236
11.2626
11.234
11.2276
11.2608
11.3501
11.4876
11.5888
1
1
1
1
1
1
1
1
1
1
1
1
1
1
1
1
1
1
1
1
1
1
1
1
1
1
1
1
1
1
1
1
1
1
1
1
1
1
1
1
1
1
1
1
1
1
1
1
1
1
1
1
1
1
1
1
1
1
1
1
1
1
1
1
1
1
1
1
1
1
1
1
3.50674
10.8693
11.6245
11.4849
11.4272
11.4014
11.4241
11.502
11.6201
11.7324
11.7854
11.777
11.7392
11.6828
11.5861
11.4428
11.3145
11.2616
11.2355
11.2344
11.2736
11.3701
11.5098
11.604
1
1
1
1
1
1
1
1
1
1
1
1
1
1
1
1
1
1
1
1
1
1
1
1
1
1
1
1
1
1
1
1
1
1
1
1
1
1
1
1
1
1
1
1
1
1
1
1
1
1
1
1
1
1
1
1
1
1
1
1
1
1
1
1
1
1
1
1
1
1
1
1
3.47339
10.8431
11.6177
11.4808
11.4274
11.4034
11.4289
11.5085
11.625
11.7319
11.7803
11.77
11.7317
11.6745
11.5758
11.4314
11.3088
11.2615
11.238
11.2409
11.2849
11.3863
11.5277
11.6175
1
1
1
1
1
1
1
1
1
1
1
1
1
1
1
1
1
1
1
1
1
1
1
1
1
1
1
1
1
1
1
1
1
1
1
1
1
1
1
1
1
1
1
1
1
1
1
1
1
1
1
1
1
1
1
1
1
1
1
1
1
1
1
1
1
1
1
1
1
1
1
1
3.45862
10.8267
11.612
11.4781
11.4281
11.4054
11.4326
11.5133
11.6286
11.7317
11.7771
11.7657
11.7265
11.6685
11.5684
11.4238
11.3048
11.2609
11.239
11.2446
11.2917
11.3964
11.5389
11.6262
1
1
1
1
1
1
1
1
1
1
1
1
1
1
1
1
1
1
1
1
1
1
1
1
1
1
1
1
1
1
1
1
1
1
1
1
1
1
1
1
1
1
1
1
1
1
1
1
1
1
1
1
1
1
1
1
1
1
1
1
1
1
1
1
1
1
1
1
1
1
1
1
3.45881
10.8266
11.6117
11.478
11.428
11.4053
11.4326
11.5134
11.6287
11.7318
11.7772
11.7657
11.7266
11.6685
11.5684
11.4238
11.3048
11.2609
11.239
11.2446
11.2917
11.3964
11.5389
11.6262
1
1
1
1
1
1
1
1
1
1
1
1
1
1
1
1
1
1
1
1
1
1
1
1
1
1
1
1
1
1
1
1
1
1
1
1
1
1
1
1
1
1
1
1
1
1
1
1
1
1
1
1
1
1
1
1
1
1
1
1
1
1
1
1
1
1
1
1
1
1
1
1
3.47289
10.8427
11.6177
11.4808
11.4274
11.4034
11.429
11.5087
11.6252
11.732
11.7803
11.7701
11.7317
11.6745
11.5758
11.4315
11.3088
11.2615
11.238
11.2409
11.2848
11.3862
11.5276
11.6174
1
1
1
1
1
1
1
1
1
1
1
1
1
1
1
1
1
1
1
1
1
1
1
1
1
1
1
1
1
1
1
1
1
1
1
1
1
1
1
1
1
1
1
1
1
1
1
1
1
1
1
1
1
1
1
1
1
1
1
1
1
1
1
1
1
1
1
1
1
1
1
1
3.50589
10.8688
11.6244
11.4847
11.4272
11.4015
11.4243
11.5023
11.6204
11.7326
11.7855
11.7771
11.7393
11.6828
11.5861
11.4428
11.3145
11.2616
11.2355
11.2343
11.2736
11.37
11.5097
11.6038
1
1
1
1
1
1
1
1
1
1
1
1
1
1
1
1
1
1
1
1
1
1
1
1
1
1
1
1
1
1
1
1
1
1
1
1
1
1
1
1
1
1
1
1
1
1
1
1
1
1
1
1
1
1
1
1
1
1
1
1
1
1
1
1
1
1
1
1
1
1
1
1
3.55346
10.904
11.6352
11.4924
11.4296
11.4017
11.42
11.4941
11.6126
11.7309
11.7897
11.784
11.7467
11.6918
11.599
11.4585
11.3236
11.2627
11.234
11.2276
11.2607
11.3501
11.4875
11.5886
1
1
1
1
1
1
1
1
1
1
1
1
1
1
1
1
1
1
1
1
1
1
1
1
1
1
1
1
1
1
1
1
1
1
1
1
1
1
1
1
1
1
1
1
1
1
1
1
1
1
1
1
1
1
1
1
1
1
1
1
1
1
1
1
1
1
1
1
1
1
1
1
3.61463
10.9483
11.6513
11.5048
11.4362
11.4059
11.4178
11.485
11.6008
11.7246
11.7906
11.7892
11.7527
11.7001
11.613
11.4782
11.3373
11.2659
11.2349
11.223
11.2493
11.3295
11.4628
11.5727
1
1
1
1
1
1
1
1
1
1
1
1
1
1
1
1
1
1
1
1
1
1
1
1
1
1
1
1
1
1
1
1
1
1
1
1
1
1
1
1
1
1
1
1
1
1
1
1
1
1
1
1
1
1
1
1
1
1
1
1
1
1
1
1
1
1
1
1
1
1
1
1
3.69022
11.0018
11.6728
11.5225
11.4467
11.414
11.4174
11.4748
11.5845
11.712
11.7871
11.7923
11.7579
11.7081
11.6283
11.5017
11.3565
11.2721
11.2387
11.221
11.2398
11.3091
11.4354
11.5542
1
1
1
1
1
1
1
1
1
1
1
1
1
1
1
1
1
1
1
1
1
1
1
1
1
1
1
1
1
1
1
1
1
1
1
1
1
1
1
1
1
1
1
1
1
1
1
1
1
1
1
1
1
1
1
1
1
1
1
1
1
1
1
1
1
1
1
1
1
1
1
1
3.78162
11.0642
11.6994
11.5454
11.46
11.4251
11.4182
11.4639
11.5641
11.6929
11.7794
11.7943
11.7639
11.717
11.6453
11.5295
11.3831
11.2832
11.2448
11.2216
11.2315
11.2876
11.4026
11.5276
1
1
1
1
1
1
1
1
1
1
1
1
1
1
1
1
1
1
1
1
1
1
1
1
1
1
1
1
1
1
1
1
1
1
1
1
1
1
1
1
1
1
1
1
1
1
1
1
1
1
1
1
1
1
1
1
1
1
1
1
1
1
1
1
1
1
1
1
1
1
1
1
3.89022
11.1349
11.7299
11.5722
11.4767
11.437
11.4202
11.4527
11.5407
11.668
11.7682
11.7966
11.7726
11.7288
11.6649
11.5613
11.4177
11.3003
11.2518
11.2235
11.2223
11.2635
11.3626
11.4879
1
1
1
1
1
1
1
1
1
1
1
1
1
1
1
1
1
1
1
1
1
1
1
1
1
1
1
1
1
1
1
1
1
1
1
1
1
1
1
1
1
1
1
1
1
1
1
1
1
1
1
1
1
1
1
1
1
1
1
1
1
1
1
1
1
1
1
1
1
1
1
1
4.01704
11.2122
11.7623
11.6028
11.4978
11.4482
11.4239
11.4431
11.5163
11.6385
11.7531
11.7992
11.7846
11.7437
11.6867
11.5951
11.4585
11.324
11.2591
11.2251
11.2115
11.237
11.3166
11.4358
1
1
1
1
1
1
1
1
1
1
1
1
1
1
1
1
1
1
1
1
1
1
1
1
1
1
1
1
1
1
1
1
1
1
1
1
1
1
1
1
1
1
1
1
1
1
1
1
1
1
1
1
1
1
1
1
1
1
1
1
1
1
1
1
1
1
1
1
1
1
1
1
4.16248
11.2938
11.7937
11.637
11.5255
11.4601
11.4304
11.4367
11.4939
11.6057
11.7322
11.799
11.7985
11.7603
11.7087
11.6279
11.5022
11.356
11.2671
11.2263
11.2003
11.2106
11.2694
11.3763
1
1
1
1
1
1
1
1
1
1
1
1
1
1
1
1
1
1
1
1
1
1
1
1
1
1
1
1
1
1
1
1
1
1
1
1
1
1
1
1
1
1
1
1
1
1
1
1
1
1
1
1
1
1
1
1
1
1
1
1
1
1
1
1
1
1
1
1
1
1
1
1
4.32661
11.3775
11.8213
11.6746
11.5624
11.4756
11.4418
11.435
11.4755
11.5714
11.7022
11.7915
11.809
11.7773
11.7282
11.6568
11.5448
11.3963
11.2802
11.2278
11.1934
11.1878
11.227
11.3169
1
1
1
1
1
1
1
1
1
1
1
1
1
1
1
1
1
1
1
1
1
1
1
1
1
1
1
1
1
1
1
1
1
1
1
1
1
1
1
1
1
1
1
1
1
1
1
1
1
1
1
1
1
1
1
1
1
1
1
1
1
1
1
1
1
1
1
1
1
1
1
1
4.50884
11.4617
11.8456
11.7136
11.6098
11.5004
11.4586
11.4393
11.4623
11.5373
11.6613
11.772
11.8112
11.7914
11.7442
11.6804
11.5834
11.4431
11.3044
11.2324
11.1931
11.1734
11.1953
11.2652
1
1
1
1
1
1
1
1
1
1
1
1
1
1
1
1
1
1
1
1
1
1
1
1
1
1
1
1
1
1
1
1
1
1
1
1
1
1
1
1
1
1
1
1
1
1
1
1
1
1
1
1
1
1
1
1
1
1
1
1
1
1
1
1
1
1
1
1
1
1
1
1
4.71004
11.5418
11.8724
11.7534
11.6648
11.5407
11.4783
11.4502
11.4546
11.5053
11.6116
11.7359
11.8011
11.7998
11.7569
11.7001
11.6171
11.4929
11.3445
11.2445
11.1999
11.1705
11.1763
11.2256
1
1
1
1
1
1
1
1
1
1
1
1
1
1
1
1
1
1
1
1
1
1
1
1
1
1
1
1
1
1
1
1
1
1
1
1
1
1
1
1
1
1
1
1
1
1
1
1
1
1
1
1
1
1
1
1
1
1
1
1
1
1
1
1
1
1
1
1
1
1
1
1
4.9331
11.6144
11.9039
11.7943
11.722
11.5961
11.5028
11.4665
11.4509
11.4782
11.5588
11.6823
11.7757
11.7991
11.7697
11.7176
11.6474
11.5428
11.4
11.2719
11.2115
11.1782
11.1684
11.1975
1
1
1
1
1
1
1
1
1
1
1
1
1
1
1
1
1
1
1
1
1
1
1
1
1
1
1
1
1
1
1
1
1
1
1
1
1
1
1
1
1
1
1
1
1
1
1
1
1
1
1
1
1
1
1
1
1
1
1
1
1
1
1
1
1
1
1
1
1
1
1
1
5.18093
11.6778
11.9386
11.8368
11.7763
11.6593
11.5401
11.4823
11.4528
11.4575
11.5097
11.6166
11.7326
11.7874
11.7804
11.735
11.6762
11.5903
11.4646
11.3205
11.2295
11.191
11.1679
11.178
1
1
1
1
1
1
1
1
1
1
1
1
1
1
1
1
1
1
1
1
1
1
1
1
1
1
1
1
1
1
1
1
1
1
1
1
1
1
1
1
1
1
1
1
1
1
1
1
1
1
1
1
1
1
1
1
1
1
1
1
1
1
1
1
1
1
1
1
1
1
1
1
5.45606
11.7286
11.9749
11.8806
11.825
11.7203
11.5927
11.5006
11.4609
11.444
11.4703
11.5504
11.6708
11.76
11.7821
11.7538
11.7026
11.633
11.5289
11.3875
11.2615
11.2038
11.1731
11.164
1
1
1
1
1
1
1
1
1
1
1
1
1
1
1
1
1
1
1
1
1
1
1
1
1
1
1
1
1
1
1
1
1
1
1
1
1
1
1
1
1
1
1
1
1
1
1
1
1
1
1
1
1
1
1
1
1
1
1
1
1
1
1
1
1
1
1
1
1
1
1
1
5.75997
11.7611
12.0112
11.9248
11.8685
11.7734
11.6537
11.5341
11.4717
11.4411
11.4434
11.4933
11.5968
11.7123
11.7696
11.7659
11.7241
11.6677
11.5847
11.4613
11.3162
11.2203
11.1807
11.156
1
1
1
1
1
1
1
1
1
1
1
1
1
1
1
1
1
1
1
1
1
1
1
1
1
1
1
1
1
1
1
1
1
1
1
1
1
1
1
1
1
1
1
1
1
1
1
1
1
1
1
1
1
1
1
1
1
1
1
1
1
1
1
1
1
1
1
1
1
1
1
1
6.09342
11.777
12.0299
11.9644
11.9093
11.8202
11.7145
11.5874
11.49
11.4484
11.4289
11.4503
11.5233
11.6402
11.7354
11.7631
11.74
11.6921
11.6273
11.5288
11.3903
11.2563
11.191
11.1569
1
1
1
1
1
1
1
1
1
1
1
1
1
1
1
1
1
1
1
1
1
1
1
1
1
1
1
1
1
1
1
1
1
1
1
1
1
1
1
1
1
1
1
1
1
1
1
1
1
1
1
1
1
1
1
1
1
1
1
1
1
1
1
1
1
1
1
1
1
1
1
1
6.45001
11.7982
12.0175
11.993
11.9459
11.865
11.7715
11.6524
11.5304
11.4598
11.4274
11.4215
11.4603
11.5531
11.6709
11.7402
11.744
11.7087
11.6575
11.5833
11.4695
11.324
11.214
11.168
1
1
1
1
1
1
1
1
1
1
1
1
1
1
1
1
1
1
1
1
1
1
1
1
1
1
1
1
1
1
1
1
1
1
1
1
1
1
1
1
1
1
1
1
1
1
1
1
1
1
1
1
1
1
1
1
1
1
1
1
1
1
1
1
1
1
1
1
1
1
1
1.00142
6.84069
11.8056
11.9877
12.0071
11.9712
11.9058
11.8252
11.7185
11.5922
11.4839
11.4332
11.4055
11.4131
11.4697
11.5778
11.6868
11.7316
11.7196
11.6792
11.6248
11.5406
11.4135
11.2712
11.1896
1
1
1
1
1
1
1
1
1
1
1
1
1
1
1
1
1
1
1
1
1
1
1
1
1
1
1
1
1
1
1
1
1
1
1
1
1
1
1
1
1
1
1
1
1
1
1
1
1
1
1
1
1
1
1
1
1
1
1
1
1
1
1
1
1
1
1
1
1
1
1
1.0748
7.23417
11.7879
11.9402
11.9964
11.9852
11.9372
11.8723
11.7785
11.6615
11.5327
11.4432
11.4024
11.3826
11.4049
11.4801
11.5986
11.6938
11.7186
11.698
11.6566
11.5977
11.5024
11.3639
11.2384
1
1
1
1
1
1
1
1
1
1
1
1
1
1
1
1
1
1
1
1
1
1
1
1
1
1
1
1
1
1
1
1
1
1
1
1
1
1
1
1
1
1
1
1
1
1
1
1
1
1
1
1
1
1
1
1
1
1
1
1
1
1
1
1
1
1
1
1
1
1
1
1.21057
7.64732
11.7344
11.8741
11.9537
11.9841
11.9552
11.9059
11.8268
11.7246
11.5979
11.4749
11.4057
11.3712
11.365
11.4036
11.4969
11.6201
11.6975
11.7077
11.6818
11.6387
11.5724
11.4634
11.3258
1
1
1
1
1
1
1
1
1
1
1
1
1
1
1
1
1
1
1
1
1
1
1
1
1
1
1
1
1
1
1
1
1
1
1
1
1
1
1
1
1
1
1
1
1
1
1
1
1
1
1
1
1
1
1
1
1
1
1
1
1
1
1
1
1
1
1
1
1
1
1
1.3949
8.09895
11.6684
11.7855
11.8808
11.9528
11.957
11.9233
11.8596
11.7745
11.6637