/*--------------------------------*- C++ -*----------------------------------*\
  =========                 |
  \\      /  F ield         | OpenFOAM: The Open Source CFD Toolbox
   \\    /   O peration     | Website:  https://openfoam.org
    \\  /    A nd           | Version:  7
     \\/     M anipulation  |
\*---------------------------------------------------------------------------*/
FoamFile
{
    version     2.0;
    format      ascii;
    class       volScalarField;
    location    "3.6";
    object      T;
}
// * * * * * * * * * * * * * * * * * * * * * * * * * * * * * * * * * * * * * //

dimensions      [0 0 0 1 0 0 0];

internalField   nonuniform List<scalar> 
73728
(
1
1
1
1
1
1
1
1
1
1
1
1
1
1
1
1
1
1
1
1
1
1
1
1
1
1
1
1
1
1
1
1
1
1
1
1
1
1
1
1
1
1
1
1
1
1
1
1
1
1
1
1
1
1
1
1
1
1
1
1
1
1
1
1
1
1
1
1
1
1
2.28675
2.93429
2.92732
2.92128
2.92239
2.92307
2.91978
2.91235
2.90856
2.91095
2.91843
2.92784
2.93885
2.94814
2.95566
2.96289
2.96857
2.97152
2.97106
2.96679
2.96213
2.96063
2.96318
2.96885
2.97759
2.98161
1
1
1
1
1
1
1
1
1
1
1
1
1
1
1
1
1
1
1
1
1
1
1
1
1
1
1
1
1
1
1
1
1
1
1
1
1
1
1
1
1
1
1
1
1
1
1
1
1
1
1
1
1
1
1
1
1
1
1
1
1
1
1
1
1
1
1
1
1
1
2.28435
2.93431
2.92697
2.92099
2.92234
2.92286
2.91942
2.91197
2.90839
2.911
2.91851
2.92809
2.93914
2.94823
2.95563
2.96256
2.9679
2.97075
2.97028
2.96618
2.96138
2.95907
2.96179
2.9663
2.97383
2.97955
1
1
1
1
1
1
1
1
1
1
1
1
1
1
1
1
1
1
1
1
1
1
1
1
1
1
1
1
1
1
1
1
1
1
1
1
1
1
1
1
1
1
1
1
1
1
1
1
1
1
1
1
1
1
1
1
1
1
1
1
1
1
1
1
1
1
1
1
1
1
2.27887
2.93459
2.92645
2.92026
2.92208
2.92248
2.9188
2.91132
2.90804
2.91099
2.91857
2.92841
2.93955
2.94845
2.9556
2.96197
2.96677
2.96945
2.96892
2.96492
2.95999
2.95687
2.95969
2.96385
2.96956
2.97415
1
1
1
1
1
1
1
1
1
1
1
1
1
1
1
1
1
1
1
1
1
1
1
1
1
1
1
1
1
1
1
1
1
1
1
1
1
1
1
1
1
1
1
1
1
1
1
1
1
1
1
1
1
1
1
1
1
1
1
1
1
1
1
1
1
1
1
1
1
1
2.27064
2.93487
2.9258
2.91933
2.92162
2.92191
2.91784
2.91035
2.90757
2.91097
2.91861
2.92883
2.9401
2.94883
2.95561
2.96122
2.96519
2.96745
2.96668
2.96253
2.95766
2.95488
2.95781
2.96182
2.96638
2.97005
1
1
1
1
1
1
1
1
1
1
1
1
1
1
1
1
1
1
1
1
1
1
1
1
1
1
1
1
1
1
1
1
1
1
1
1
1
1
1
1
1
1
1
1
1
1
1
1
1
1
1
1
1
1
1
1
1
1
1
1
1
1
1
1
1
1
1
1
1
1
2.25977
2.93504
2.92496
2.91827
2.92099
2.9211
2.91646
2.9091
2.90705
2.91094
2.9187
2.92939
2.94076
2.94929
2.95567
2.96044
2.9634
2.96492
2.96357
2.9589
2.95435
2.953
2.95613
2.9603
2.96472
2.96778
1
1
1
1
1
1
1
1
1
1
1
1
1
1
1
1
1
1
1
1
1
1
1
1
1
1
1
1
1
1
1
1
1
1
1
1
1
1
1
1
1
1
1
1
1
1
1
1
1
1
1
1
1
1
1
1
1
1
1
1
1
1
1
1
1
1
1
1
1
1
2.24583
2.93503
2.92396
2.91711
2.92018
2.91997
2.91466
2.90773
2.90662
2.91096
2.91898
2.93018
2.9415
2.94974
2.95574
2.95966
2.96159
2.96212
2.95969
2.95422
2.95011
2.95054
2.95431
2.95901
2.96388
2.96702
1
1
1
1
1
1
1
1
1
1
1
1
1
1
1
1
1
1
1
1
1
1
1
1
1
1
1
1
1
1
1
1
1
1
1
1
1
1
1
1
1
1
1
1
1
1
1
1
1
1
1
1
1
1
1
1
1
1
1
1
1
1
1
1
1
1
1
1
1
1
2.22872
2.93455
2.92272
2.91583
2.91918
2.91844
2.91252
2.90637
2.90637
2.91108
2.9195
2.93118
2.94219
2.95005
2.95573
2.9589
2.95992
2.95935
2.95527
2.94883
2.94524
2.94718
2.95171
2.95724
2.96294
2.96676
1
1
1
1
1
1
1
1
1
1
1
1
1
1
1
1
1
1
1
1
1
1
1
1
1
1
1
1
1
1
1
1
1
1
1
1
1
1
1
1
1
1
1
1
1
1
1
1
1
1
1
1
1
1
1
1
1
1
1
1
1
1
1
1
1
1
1
1
1
1
2.2084
2.93332
2.92113
2.91445
2.91793
2.91644
2.91012
2.90517
2.90634
2.91142
2.92044
2.93242
2.94274
2.9501
2.95549
2.95813
2.95838
2.9566
2.95071
2.94335
2.94037
2.94307
2.94804
2.95444
2.96115
2.96589
1
1
1
1
1
1
1
1
1
1
1
1
1
1
1
1
1
1
1
1
1
1
1
1
1
1
1
1
1
1
1
1
1
1
1
1
1
1
1
1
1
1
1
1
1
1
1
1
1
1
1
1
1
1
1
1
1
1
1
1
1
1
1
1
1
1
1
1
1
1
2.18478
2.93098
2.91923
2.91303
2.91637
2.91392
2.90761
2.90426
2.90647
2.91216
2.92193
2.9339
2.94314
2.94982
2.95483
2.95719
2.95691
2.95378
2.94618
2.93831
2.93627
2.93896
2.94374
2.95079
2.95831
2.96356
1
1
1
1
1
1
1
1
1
1
1
1
1
1
1
1
1
1
1
1
1
1
1
1
1
1
1
1
1
1
1
1
1
1
1
1
1
1
1
1
1
1
1
1
1
1
1
1
1
1
1
1
1
1
1
1
1
1
1
1
1
1
1
1
1
1
1
1
1
1
2.15765
2.92712
2.91718
2.91164
2.91441
2.91094
2.9052
2.90369
2.90672
2.91341
2.92403
2.93558
2.94346
2.94922
2.95371
2.95581
2.95511
2.95069
2.9417
2.9341
2.93312
2.93547
2.94003
2.94732
2.9551
2.96003
1
1
1
1
1
1
1
1
1
1
1
1
1
1
1
1
1
1
1
1
1
1
1
1
1
1
1
1
1
1
1
1
1
1
1
1
1
1
1
1
1
1
1
1
1
1
1
1
1
1
1
1
1
1
1
1
1
1
1
1
1
1
1
1
1
1
1
1
1
1
2.12661
2.92116
2.91532
2.91024
2.9119
2.90779
2.90318
2.9034
2.90719
2.91516
2.92667
2.93739
2.94381
2.94849
2.95221
2.95386
2.95265
2.94689
2.93716
2.93078
2.93069
2.93271
2.93742
2.94492
2.95244
2.95638
1
1
1
1
1
1
1
1
1
1
1
1
1
1
1
1
1
1
1
1
1
1
1
1
1
1
1
1
1
1
1
1
1
1
1
1
1
1
1
1
1
1
1
1
1
1
1
1
1
1
1
1
1
1
1
1
1
1
1
1
1
1
1
1
1
1
1
1
1
1
2.09096
2.91263
2.91414
2.9084
2.90883
2.90483
2.90195
2.90326
2.90793
2.91742
2.92968
2.93916
2.94421
2.94781
2.95053
2.95145
2.94929
2.94201
2.9324
2.92816
2.92849
2.93056
2.93577
2.94369
2.95058
2.95344
1
1
1
1
1
1
1
1
1
1
1
1
1
1
1
1
1
1
1
1
1
1
1
1
1
1
1
1
1
1
1
1
1
1
1
1
1
1
1
1
1
1
1
1
1
1
1
1
1
1
1
1
1
1
1
1
1
1
1
1
1
1
1
1
1
1
1
1
1
1
2.05111
2.9017
2.91265
2.9058
2.9055
2.90256
2.90152
2.90327
2.90908
2.92026
2.9327
2.94065
2.94464
2.94718
2.94893
2.94883
2.94505
2.93611
2.92773
2.9257
2.92609
2.92871
2.93482
2.94306
2.94909
2.95123
1
1
1
1
1
1
1
1
1
1
1
1
1
1
1
1
1
1
1
1
1
1
1
1
1
1
1
1
1
1
1
1
1
1
1
1
1
1
1
1
1
1
1
1
1
1
1
1
1
1
1
1
1
1
1
1
1
1
1
1
1
1
1
1
1
1
1
1
1
1
2.00734
2.88805
2.91003
2.90257
2.90244
2.90136
2.90161
2.90368
2.91097
2.92363
2.93526
2.9417
2.94498
2.94663
2.9474
2.94602
2.93994
2.93005
2.9238
2.92295
2.92341
2.92684
2.93401
2.94233
2.9473
2.94907
1
1
1
1
1
1
1
1
1
1
1
1
1
1
1
1
1
1
1
1
1
1
1
1
1
1
1
1
1
1
1
1
1
1
1
1
1
1
1
1
1
1
1
1
1
1
1
1
1
1
1
1
1
1
1
1
1
1
1
1
1
1
1
1
1
1
1
1
1
1
1.95926
2.87116
2.9061
2.899
2.90018
2.90124
2.90204
2.90477
2.91396
2.92725
2.93704
2.94227
2.94499
2.94603
2.94585
2.94268
2.93446
2.92482
2.92092
2.92008
2.92083
2.92515
2.93311
2.94074
2.94461
2.94622
1
1
1
1
1
1
1
1
1
1
1
1
1
1
1
1
1
1
1
1
1
1
1
1
1
1
1
1
1
1
1
1
1
1
1
1
1
1
1
1
1
1
1
1
1
1
1
1
1
1
1
1
1
1
1
1
1
1
1
1
1
1
1
1
1
1
1
1
1
1
1.90609
2.85032
2.90069
2.89579
2.89923
2.90171
2.90276
2.90697
2.9182
2.93057
2.93809
2.94237
2.94451
2.94504
2.94383
2.93847
2.92886
2.92101
2.91874
2.91776
2.91904
2.92421
2.93234
2.93832
2.94099
2.9424
1
1
1
1
1
1
1
1
1
1
1
1
1
1
1
1
1
1
1
1
1
1
1
1
1
1
1
1
1
1
1
1
1
1
1
1
1
1
1
1
1
1
1
1
1
1
1
1
1
1
1
1
1
1
1
1
1
1
1
1
1
1
1
1
1
1
1
1
1
1
1.84648
2.82466
2.89392
2.89406
2.89971
2.90231
2.90403
2.9107
2.92317
2.93317
2.93871
2.94204
2.94349
2.94337
2.94044
2.93314
2.92354
2.91854
2.91689
2.91631
2.91839
2.92449
2.93203
2.93583
2.93719
2.9381
1
1
1
1
1
1
1
1
1
1
1
1
1
1
1
1
1
1
1
1
1
1
1
1
1
1
1
1
1
1
1
1
1
1
1
1
1
1
1
1
1
1
1
1
1
1
1
1
1
1
1
1
1
1
1
1
1
1
1
1
1
1
1
1
1
1
1
1
1
1
1.7791
2.79374
2.88731
2.89412
2.90065
2.90291
2.90633
2.91592
2.9277
2.93503
2.93919
2.94142
2.94199
2.9406
2.93575
2.92686
2.91913
2.91658
2.91525
2.9156
2.91908
2.92602
2.93202
2.93386
2.93402
2.93418
1
1
1
1
1
1
1
1
1
1
1
1
1
1
1
1
1
1
1
1
1
1
1
1
1
1
1
1
1
1
1
1
1
1
1
1
1
1
1
1
1
1
1
1
1
1
1
1
1
1
1
1
1
1
1
1
1
1
1
1
1
1
1
1
1
1
1
1
1
1
1.70272
2.75732
2.8825
2.89536
2.90144
2.90411
2.91027
2.92158
2.93086
2.93644
2.93952
2.9407
2.94009
2.9369
2.92985
2.9206
2.91586
2.91435
2.91375
2.91551
2.9209
2.92798
2.9318
2.93235
2.93178
2.93083
1
1
1
1
1
1
1
1
1
1
1
1
1
1
1
1
1
1
1
1
1
1
1
1
1
1
1
1
1
1
1
1
1
1
1
1
1
1
1
1
1
1
1
1
1
1
1
1
1
1
1
1
1
1
1
1
1
1
1
1
1
1
1
1
1
1
1
1
1
1
1.61683
2.71579
2.88017
2.89685
2.90297
2.90682
2.91572
2.92604
2.93278
2.93743
2.93965
2.93967
2.93754
2.93221
2.92338
2.91592
2.91332
2.91205
2.9125
2.91614
2.92312
2.92916
2.93107
2.93091
2.92976
2.92766
1
1
1
1
1
1
1
1
1
1
1
1
1
1
1
1
1
1
1
1
1
1
1
1
1
1
1
1
1
1
1
1
1
1
1
1
1
1
1
1
1
1
1
1
1
1
1
1
1
1
1
1
1
1
1
1
1
1
1
1
1
1
1
1
1
1
1
1
1
1
1.52278
2.6697
2.87999
2.89904
2.90586
2.91156
2.92122
2.92873
2.93398
2.93796
2.93907
2.93787
2.93394
2.92654
2.91751
2.91296
2.91108
2.91035
2.91202
2.91766
2.92505
2.92903
2.9296
2.92898
2.92729
2.92404
1
1
1
1
1
1
1
1
1
1
1
1
1
1
1
1
1
1
1
1
1
1
1
1
1
1
1
1
1
1
1
1
1
1
1
1
1
1
1
1
1
1
1
1
1
1
1
1
1
1
1
1
1
1
1
1
1
1
1
1
1
1
1
1
1
1
1
1
1
1
1.42309
2.62045
2.88247
2.90242
2.91053
2.91755
2.92509
2.93039
2.93484
2.93775
2.93756
2.93492
2.929
2.92027
2.91359
2.911
2.90942
2.90958
2.91303
2.92017
2.92612
2.92777
2.92746
2.92634
2.92406
2.9197
1
1
1
1
1
1
1
1
1
1
1
1
1
1
1
1
1
1
1
1
1
1
1
1
1
1
1
1
1
1
1
1
1
1
1
1
1
1
1
1
1
1
1
1
1
1
1
1
1
1
1
1
1
1
1
1
1
1
1
1
1
1
1
1
1
1
1
1
1
1
1.32253
2.56995
2.88781
2.90767
2.9163
2.92288
2.92729
2.93168
2.9354
2.9367
2.93524
2.93061
2.9228
2.91461
2.91116
2.90931
2.90852
2.91013
2.91593
2.92304
2.92622
2.92614
2.92493
2.92315
2.91992
2.91399
1
1
1
1
1
1
1
1
1
1
1
1
1
1
1
1
1
1
1
1
1
1
1
1
1
1
1
1
1
1
1
1
1
1
1
1
1
1
1
1
1
1
1
1
1
1
1
1
1
1
1
1
1
1
1
1
1
1
1
1
1
1
1
1
1
1
1
1
1
1
1.22658
2.52067
2.89565
2.91421
2.92189
2.92619
2.92856
2.93279
2.93547
2.9352
2.93187
2.925
2.91626
2.91113
2.9091
2.9079
2.90837
2.91247
2.9199
2.92498
2.92572
2.92445
2.92247
2.91967
2.91488
2.90721
1
1
1
1
1
1
1
1
1
1
1
1
1
1
1
1
1
1
1
1
1
1
1
1
1
1
1
1
1
1
1
1
1
1
1
1
1
1
1
1
1
1
1
1
1
1
1
1
1
1
1
1
1
1
1
1
1
1
1
1
1
1
1
1
1
1
1
1
1
1
1.13929
2.47388
2.90561
2.92082
2.92582
2.92758
2.92952
2.93341
2.93486
2.93311
2.92741
2.91864
2.91132
2.90879
2.90729
2.90703
2.90946
2.91616
2.92311
2.92546
2.92471
2.9228
2.92011
2.91598
2.90924
2.90113
1
1
1
1
1
1
1
1
1
1
1
1
1
1
1
1
1
1
1
1
1
1
1
1
1
1
1
1
1
1
1
1
1
1
1
1
1
1
1
1
1
1
1
1
1
1
1
1
1
1
1
1
1
1
1
1
1
1
1
1
1
1
1
1
1
1
1
1
1
1
1.06296
2.42888
2.91622
2.92621
2.92759
2.92818
2.92981
2.93334
2.93348
2.92992
2.92177
2.91288
2.90887
2.90697
2.90617
2.90721
2.91234
2.92002
2.92434
2.92464
2.92316
2.92093
2.91745
2.91161
2.90348
2.8975
1
1
1
1
1
1
1
1
1
1
1
1
1
1
1
1
1
1
1
1
1
1
1
1
1
1
1
1
1
1
1
1
1
1
1
1
1
1
1
1
1
1
1
1
1
1
1
1
1
1
1
1
1
1
1
1
1
1
1
1
1
1
1
1
1
1
1
1
1
1
1.00541
2.38441
2.92512
2.93019
2.92798
2.92797
2.92946
2.93239
2.93122
2.92506
2.91554
2.90944
2.9073
2.906
2.90614
2.90948
2.9166
2.92241
2.92377
2.92286
2.9211
2.9184
2.91369
2.90606
2.89863
2.89561
1
1
1
1
1
1
1
1
1
1
1
1
1
1
1
1
1
1
1
1
1
1
1
1
1
1
1
1
1
1
1
1
1
1
1
1
1
1
1
1
1
1
1
1
1
1
1
1
1
1
1
1
1
1
1
1
1
1
1
1
1
1
1
1
1
1
1
1
1
1
1
2.34245
2.93238
2.93312
2.92689
2.92689
2.92871
2.93057
2.92736
2.91863
2.91048
2.90775
2.90623
2.90597
2.908
2.91406
2.92062
2.9229
2.92219
2.92059
2.91838
2.91463
2.90814
2.89994
2.8956
2.89402
1
1
1
1
1
1
1
1
1
1
1
1
1
1
1
1
1
1
1
1
1
1
1
1
1
1
1
1
1
1
1
1
1
1
1
1
1
1
1
1
1
1
1
1
1
1
1
1
1
1
1
1
1
1
1
1
1
1
1
1
1
1
1
1
1
1
1
1
1
1
1
2.30003
2.93767
2.93386
2.92472
2.92581
2.92796
2.92776
2.92155
2.91217
2.90779
2.90622
2.90584
2.90723
2.91236
2.91933
2.92269
2.92227
2.92032
2.91817
2.91487
2.90925
2.90131
2.89526
2.89333
2.89261
1
1
1
1
1
1
1
1
1
1
1
1
1
1
1
1
1
1
1
1
1
1
1
1
1
1
1
1
1
1
1
1
1
1
1
1
1
1
1
1
1
1
1
1
1
1
1
1
1
1
1
1
1
1
1
1
1
1
1
1
1
1
1
1
1
1
1
1
1
1
1
2.25514
2.94057
2.93217
2.92279
2.92521
2.9266
2.92368
2.91491
2.90808
2.90584
2.90523
2.90623
2.91065
2.9179
2.92268
2.92299
2.92095
2.9186
2.91548
2.91036
2.9027
2.89544
2.89254
2.89138
2.89178
1
1
1
1
1
1
1
1
1
1
1
1
1
1
1
1
1
1
1
1
1
1
1
1
1
1
1
1
1
1
1
1
1
1
1
1
1
1
1
1
1
1
1
1
1
1
1
1
1
1
1
1
1
1
1
1
1
1
1
1
1
1
1
1
1
1
1
1
1
1
1
2.20675
2.93934
2.92894
2.92126
2.92465
2.92425
2.9182
2.90985
2.90597
2.90447
2.90499
2.90857
2.91575
2.92205
2.92348
2.92199
2.91953
2.91656
2.91188
2.90465
2.8966
2.89237
2.89071
2.89052
2.89219
1
1
1
1
1
1
1
1
1
1
1
1
1
1
1
1
1
1
1
1
1
1
1
1
1
1
1
1
1
1
1
1
1
1
1
1
1
1
1
1
1
1
1
1
1
1
1
1
1
1
1
1
1
1
1
1
1
1
1
1
1
1
1
1
1
1
1
1
1
1
1
2.1537
2.93237
2.92538
2.92018
2.92331
2.92044
2.91294
2.90739
2.90456
2.90414
2.90656
2.91324
2.9206
2.92339
2.92259
2.92027
2.91755
2.91334
2.90668
2.89841
2.89292
2.89091
2.88997
2.89117
2.89466
1
1
1
1
1
1
1
1
1
1
1
1
1
1
1
1
1
1
1
1
1
1
1
1
1
1
1
1
1
1
1
1
1
1
1
1
1
1
1
1
1
1
1
1
1
1
1
1
1
1
1
1
1
1
1
1
1
1
1
1
1
1
1
1
1
1
1
1
1
1
1
2.0936
2.91889
2.92373
2.91902
2.92012
2.91558
2.90991
2.90597
2.90421
2.90539
2.91109
2.91896
2.923
2.92279
2.92055
2.91803
2.91425
2.90818
2.90009
2.89364
2.89126
2.89009
2.89065
2.89389
2.89969
1
1
1
1
1
1
1
1
1
1
1
1
1
1
1
1
1
1
1
1
1
1
1
1
1
1
1
1
1
1
1
1
1
1
1
1
1
1
1
1
1
1
1
1
1
1
1
1
1
1
1
1
1
1
1
1
1
1
1
1
1
1
1
1
1
1
1
1
1
1
1
2.02718
2.8999
2.92251
2.91661
2.91553
2.91201
2.90826
2.9053
2.90524
2.90954
2.91759
2.92286
2.92317
2.92095
2.91831
2.91478
2.90918
2.90134
2.89417
2.89123
2.89006
2.89038
2.89309
2.89894
2.90612
1
1
1
1
1
1
1
1
1
1
1
1
1
1
1
1
1
1
1
1
1
1
1
1
1
1
1
1
1
1
1
1
1
1
1
1
1
1
1
1
1
1
1
1
1
1
1
1
1
1
1
1
1
1
1
1
1
1
1
1
1
1
1
1
1
1
1
1
1
1
1
1.95543
2.87524
2.91944
2.91304
2.9123
2.91052
2.90729
2.90583
2.90854
2.91617
2.92282
2.92397
2.92195
2.91902
2.91554
2.91026
2.90263
2.89481
2.89096
2.88966
2.88975
2.89214
2.89752
2.9053
2.91102
1
1
1
1
1
1
1
1
1
1
1
1
1
1
1
1
1
1
1
1
1
1
1
1
1
1
1
1
1
1
1
1
1
1
1
1
1
1
1
1
1
1
1
1
1
1
1
1
1
1
1
1
1
1
1
1
1
1
1
1
1
1
1
1
1
1
1
1
1
1
1
1.87621
2.84373
2.9142
2.9103
2.9117
2.9097
2.90738
2.90832
2.9146
2.9223
2.92477
2.9233
2.92018
2.91668
2.91171
2.90439
2.89609
2.89108
2.8894
2.88904
2.89095
2.89588
2.90359
2.91049
2.91287
1
1
1
1
1
1
1
1
1
1
1
1
1
1
1
1
1
1
1
1
1
1
1
1
1
1
1
1
1
1
1
1
1
1
1
1
1
1
1
1
1
1
1
1
1
1
1
1
1
1
1
1
1
1
1
1
1
1
1
1
1
1
1
1
1
1
1
1
1
1
1
1.78676
2.80456
2.90819
2.91038
2.91198
2.91008
2.90954
2.91362
2.9213
2.92524
2.92452
2.92146
2.91784
2.91312
2.90632
2.89795
2.89186
2.88969
2.8888
2.89008
2.8944
2.90186
2.9095
2.91281
2.91261
1
1
1
1
1
1
1
1
1
1
1
1
1
1
1
1
1
1
1
1
1
1
1
1
1
1
1
1
1
1
1
1
1
1
1
1
1
1
1
1
1
1
1
1
1
1
1
1
1
1
1
1
1
1
1
1
1
1
1
1
1
1
1
1
1
1
1
1
1
1
1
1.68472
2.75727
2.90432
2.91204
2.91298
2.91241
2.91441
2.92069
2.92555
2.92569
2.92284
2.91895
2.91417
2.90783
2.89976
2.89291
2.8902
2.88906
2.88975
2.89343
2.90049
2.90865
2.91298
2.91307
2.91107
1
1
1
1
1
1
1
1
1
1
1
1
1
1
1
1
1
1
1
1
1
1
1
1
1
1
1
1
1
1
1
1
1
1
1
1
1
1
1
1
1
1
1
1
1
1
1
1
1
1
1
1
1
1
1
1
1
1
1
1
1
1
1
1
1
1
1
1
1
1
1
1.57125
2.70328
2.90331
2.91444
2.91597
2.91705
2.92138
2.9261
2.92706
2.92479
2.92058
2.91533
2.90896
2.9012
2.89387
2.89048
2.88926
2.88958
2.89272
2.89937
2.90797
2.91339
2.9141
2.91228
2.90921
1
1
1
1
1
1
1
1
1
1
1
1
1
1
1
1
1
1
1
1
1
1
1
1
1
1
1
1
1
1
1
1
1
1
1
1
1
1
1
1
1
1
1
1
1
1
1
1
1
1
1
1
1
1
1
1
1
1
1
1
1
1
1
1
1
1
1
1
1
1
1
1.45074
2.64538
2.906
2.91799
2.92065
2.92328
2.92723
2.92866
2.92708
2.92326
2.91759
2.91068
2.90274
2.89493
2.89056
2.88911
2.88909
2.89173
2.89793
2.90686
2.91363
2.91529
2.91397
2.91109
2.90703
1
1
1
1
1
1
1
1
1
1
1
1
1
1
1
1
1
1
1
1
1
1
1
1
1
1
1
1
1
1
1
1
1
1
1
1
1
1
1
1
1
1
1
1
1
1
1
1
1
1
1
1
1
1
1
1
1
1
1
1
1
1
1
1
1
1
1
1
1
1
1
1.33114
2.58688
2.91199
2.92332
2.92612
2.9288
2.93015
2.92927
2.9262
2.92111
2.91382
2.90531
2.89676
2.89106
2.88907
2.88843
2.89038
2.89592
2.90485
2.91305
2.91606
2.91546
2.91305
2.90939
2.90364
1
1
1
1
1
1
1
1
1
1
1
1
1
1
1
1
1
1
1
1
1
1
1
1
1
1
1
1
1
1
1
1
1
1
1
1
1
1
1
1
1
1
1
1
1
1
1
1
1
1
1
1
1
1
1
1
1
1
1
1
1
1
1
1
1
1
1
1
1
1
1
1.22124
2.53145
2.92013
2.92949
2.93108
2.93186
2.93073
2.92849
2.92466
2.91811
2.90925
2.89983
2.89266
2.88972
2.88832
2.88932
2.89382
2.90215
2.91139
2.91602
2.91627
2.91447
2.91136
2.90616
2.89817
1
1
1
1
1
1
1
1
1
1
1
1
1
1
1
1
1
1
1
1
1
1
1
1
1
1
1
1
1
1
1
1
1
1
1
1
1
1
1
1
1
1
1
1
1
1
1
1
1
1
1
1
1
1
1
1
1
1
1
1
1
1
1
1
1
1
1
1
1
1
1
1.12646
2.48041
2.92918
2.93482
2.93447
2.93255
2.9293
2.92694
2.92213
2.914
2.90403
2.89536
2.8911
2.88923
2.88917
2.89241
2.89959
2.90905
2.91525
2.91653
2.91521
2.91256
2.90815
2.90067
2.89106
1
1
1
1
1
1
1
1
1
1
1
1
1
1
1
1
1
1
1
1
1
1
1
1
1
1
1
1
1
1
1
1
1
1
1
1
1
1
1
1
1
1
1
1
1
1
1
1
1
1
1
1
1
1
1
1
1
1
1
1
1
1
1
1
1
1
1
1
1
1
1
1.04925
2.43248
2.93727
2.93849
2.9357
2.93094
2.92721
2.92458
2.9184
2.90886
2.89891
2.89288
2.89069
2.88987
2.89196
2.89779
2.90673
2.91417
2.9166
2.91574
2.91337
2.90954
2.90307
2.89347
2.8847
1
1
1
1
1
1
1
1
1
1
1
1
1
1
1
1
1
1
1
1
1
1
1
1
1
1
1
1
1
1
1
1
1
1
1
1
1
1
1
1
1
1
1
1
1
1
1
1
1
1
1
1
1
1
1
1
1
1
1
1
1
1
1
1
1
1
1
1
1
1
1
1.00114
2.38766
2.94272
2.94077
2.93438
2.92821
2.92485
2.92133
2.91368
2.90327
2.89502
2.89196
2.89074
2.89194
2.8966
2.90462
2.91289
2.91672
2.91651
2.91439
2.91099
2.90534
2.8966
2.8867
2.88113
1
1
1
1
1
1
1
1
1
1
1
1
1
1
1
1
1
1
1
1
1
1
1
1
1
1
1
1
1
1
1
1
1
1
1
1
1
1
1
1
1
1
1
1
1
1
1
1
1
1
1
1
1
1
1
1
1
1
1
1
1
1
1
1
1
1
1
1
1
1
1
1
2.34797
2.94575
2.94127
2.93102
2.92534
2.9221
2.91751
2.9084
2.89824
2.89299
2.89132
2.89167
2.8954
2.90244
2.91111
2.91653
2.9174
2.91573
2.91275
2.90789
2.90012
2.89004
2.88248
2.87953
1
1
1
1
1
1
1
1
1
1
1
1
1
1
1
1
1
1
1
1
1
1
1
1
1
1
1
1
1
1
1
1
1
1
1
1
1
1
1
1
1
1
1
1
1
1
1
1
1
1
1
1
1
1
1
1
1
1
1
1
1
1
1
1
1
1
1
1
1
1
1
1
2.30919
2.94671
2.9403
2.92644
2.92229
2.91918
2.91333
2.90313
2.89483
2.89187
2.8912
2.89374
2.89987
2.90847
2.91553
2.91801
2.91705
2.91449
2.91047
2.90385
2.89429
2.88503
2.88074
2.8787
1
1
1
1
1
1
1
1
1
1
1
1
1
1
1
1
1
1
1
1
1
1
1
1
1
1
1
1
1
1
1
1
1
1
1
1
1
1
1
1
1
1
1
1
1
1
1
1
1
1
1
1
1
1
1
1
1
1
1
1
1
1
1
1
1
1
1
1
1
1
1
1
2.2698
2.94696
2.93672
2.92149
2.91922
2.91612
2.90874
2.89867
2.89311
2.89107
2.89201
2.89688
2.90498
2.91342
2.91779
2.91802
2.9159
2.91267
2.90729
2.89886
2.88881
2.88232
2.87995
2.87859
1
1
1
1
1
1
1
1
1
1
1
1
1
1
1
1
1
1
1
1
1
1
1
1
1
1
1
1
1
1
1
1
1
1
1
1
1
1
1
1
1
1
1
1
1
1
1
1
1
1
1
1
1
1
1
1
1
1
1
1
1
1
1
1
1
1
1
1
1
1
1
1
2.2316
2.94508
2.9315
2.91685
2.91613
2.91256
2.90398
2.89571
2.89196
2.89101
2.8939
2.90094
2.91009
2.91661
2.9185
2.91707
2.91431
2.91009
2.90316
2.8934
2.88472
2.88104
2.8793
2.8791
1
1
1
1
1
1
1
1
1
1
1
1
1
1
1
1
1
1
1
1
1
1
1
1
1
1
1
1
1
1
1
1
1
1
1
1
1
1
1
1
1
1
1
1
1
1
1
1
1
1
1
1
1
1
1
1
1
1
1
1
1
1
1
1
1
1
1
1
1
1
1
1
2.19484
2.94103
2.92614
2.91281
2.91278
2.9083
2.89973
2.89395
2.89107
2.8917
2.89673
2.90562
2.9143
2.91836
2.91819
2.91568
2.91235
2.90693
2.8984
2.88841
2.88229
2.88001
2.87883
2.88011
1
1
1
1
1
1
1
1
1
1
1
1
1
1
1
1
1
1
1
1
1
1
1
1
1
1
1
1
1
1
1
1
1
1
1
1
1
1
1
1
1
1
1
1
1
1
1
1
1
1
1
1
1
1
1
1
1
1
1
1
1
1
1
1
1
1
1
1
1
1
1
1
2.1597
2.93533
2.92099
2.90932
2.90911
2.90373
2.8966
2.89245
2.89066
2.893
2.90025
2.91022
2.91717
2.919
2.91729
2.91435
2.9102
2.9034
2.8936
2.88475
2.88088
2.87896
2.87875
2.88156
1
1
1
1
1
1
1
1
1
1
1
1
1
1
1
1
1
1
1
1
1
1
1
1
1
1
1
1
1
1
1
1
1
1
1
1
1
1
1
1
1
1
1
1
1
1
1
1
1
1
1
1
1
1
1
1
1
1
1
1
1
1
1
1
1
1
1
1
1
1
1
1
2.12618
2.92821
2.91635
2.90626
2.90528
2.89965
2.89448
2.89095
2.89067
2.89479
2.90408
2.91395
2.91881
2.91888
2.91627
2.913
2.90794
2.8997
2.88943
2.88263
2.87992
2.8783
2.87926
2.88362
1
1
1
1
1
1
1
1
1
1
1
1
1
1
1
1
1
1
1
1
1
1
1
1
1
1
1
1
1
1
1
1
1
1
1
1
1
1
1
1
1
1
1
1
1
1
1
1
1
1
1
1
1
1
1
1
1
1
1
1
1
1
1
1
1
1
1
1
1
1
1
1
2.09413
2.91979
2.91257
2.90349
2.90162
2.89664
2.89281
2.88988
2.89087
2.89708
2.90769
2.91642
2.91938
2.91812
2.91522
2.91148
2.90541
2.89597
2.88638
2.88164
2.87932
2.87842
2.88066
2.88647
1
1
1
1
1
1
1
1
1
1
1
1
1
1
1
1
1
1
1
1
1
1
1
1
1
1
1
1
1
1
1
1
1
1
1
1
1
1
1
1
1
1
1
1
1
1
1
1
1
1
1
1
1
1
1
1
1
1
1
1
1
1
1
1
1
1
1
1
1
1
1
1
2.06327
2.91038
2.90983
2.90075
2.89848
2.89475
2.89137
2.88934
2.89152
2.89959
2.91068
2.91773
2.9191
2.917
2.91395
2.90968
2.90254
2.89244
2.88449
2.88121
2.87924
2.87935
2.88302
2.89019
1
1
1
1
1
1
1
1
1
1
1
1
1
1
1
1
1
1
1
1
1
1
1
1
1
1
1
1
1
1
1
1
1
1
1
1
1
1
1
1
1
1
1
1
1
1
1
1
1
1
1
1
1
1
1
1
1
1
1
1
1
1
1
1
1
1
1
1
1
1
1
1
2.034
2.90072
2.90739
2.89801
2.89608
2.89355
2.89032
2.88922
2.89263
2.90216
2.91285
2.91819
2.91825
2.91566
2.91243
2.90751
2.89936
2.88938
2.88342
2.88098
2.87963
2.88101
2.8861
2.89445
1
1
1
1
1
1
1
1
1
1
1
1
1
1
1
1
1
1
1
1
1
1
1
1
1
1
1
1
1
1
1
1
1
1
1
1
1
1
1
1
1
1
1
1
1
1
1
1
1
1
1
1
1
1
1
1
1
1
1
1
1
1
1
1
1
1
1
1
1
1
1
1
2.00705
2.8912
2.90475
2.89562
2.89434
2.89267
2.88963
2.88938
2.89415
2.90463
2.91435
2.91813
2.91718
2.91435
2.91074
2.90507
2.8961
2.88694
2.88273
2.88077
2.88034
2.88295
2.88951
2.8987
1
1
1
1
1
1
1
1
1
1
1
1
1
1
1
1
1
1
1
1
1
1
1
1
1
1
1
1
1
1
1
1
1
1
1
1
1
1
1
1
1
1
1
1
1
1
1
1
1
1
1
1
1
1
1
1
1
1
1
1
1
1
1
1
1
1
1
1
1
1
1
1
1.98272
2.88216
2.90212
2.89357
2.89303
2.89189
2.8892
2.88978
2.89589
2.90685
2.91541
2.91786
2.91624
2.91317
2.90908
2.90256
2.89304
2.88509
2.8821
2.88054
2.88101
2.88489
2.89279
2.90241
1
1
1
1
1
1
1
1
1
1
1
1
1
1
1
1
1
1
1
1
1
1
1
1
1
1
1
1
1
1
1
1
1
1
1
1
1
1
1
1
1
1
1
1
1
1
1
1
1
1
1
1
1
1
1
1
1
1
1
1
1
1
1
1
1
1
1
1
1
1
1
1
1.96126
2.8739
2.89969
2.89185
2.89202
2.89106
2.88898
2.89036
2.89759
2.90869
2.91616
2.91759
2.91552
2.91222
2.9076
2.90021
2.89045
2.88375
2.88147
2.88029
2.88163
2.88659
2.89562
2.90522
1
1
1
1
1
1
1
1
1
1
1
1
1
1
1
1
1
1
1
1
1
1
1
1
1
1
1
1
1
1
1
1
1
1
1
1
1
1
1
1
1
1
1
1
1
1
1
1
1
1
1
1
1
1
1
1
1
1
1
1
1
1
1
1
1
1
1
1
1
1
1
1
1.94274
2.86658
2.89757
2.89042
2.89125
2.89029
2.88889
2.891
2.8991
2.91007
2.91662
2.91732
2.91499
2.91148
2.90634
2.89817
2.88844
2.88286
2.88091
2.88013
2.88219
2.88807
2.89791
2.90709
1
1
1
1
1
1
1
1
1
1
1
1
1
1
1
1
1
1
1
1
1
1
1
1
1
1
1
1
1
1
1
1
1
1
1
1
1
1
1
1
1
1
1
1
1
1
1
1
1
1
1
1
1
1
1
1
1
1
1
1
1
1
1
1
1
1
1
1
1
1
1
1
1.92704
2.86023
2.89583
2.88935
2.8907
2.88975
2.88891
2.89166
2.90032
2.91096
2.91678
2.91698
2.91451
2.91084
2.90522
2.89645
2.88698
2.88233
2.88053
2.88016
2.88282
2.88947
2.8998
2.90835
1
1
1
1
1
1
1
1
1
1
1
1
1
1
1
1
1
1
1
1
1
1
1
1
1
1
1
1
1
1
1
1
1
1
1
1
1
1
1
1
1
1
1
1
1
1
1
1
1
1
1
1
1
1
1
1
1
1
1
1
1
1
1
1
1
1
1
1
1
1
1
1
1.91397
2.85478
2.89448
2.88864
2.89043
2.8895
2.88905
2.8923
2.90122
2.9114
2.91662
2.91652
2.91399
2.9102
2.9042
2.89501
2.88595
2.88203
2.88039
2.88039
2.8836
2.89087
2.9015
2.90942
1
1
1
1
1
1
1
1
1
1
1
1
1
1
1
1
1
1
1
1
1
1
1
1
1
1
1
1
1
1
1
1
1
1
1
1
1
1
1
1
1
1
1
1
1
1
1
1
1
1
1
1
1
1
1
1
1
1
1
1
1
1
1
1
1
1
1
1
1
1
1
1
1.90346
2.85028
2.89355
2.88827
2.89044
2.88955
2.88936
2.8929
2.90184
2.91152
2.91626
2.91596
2.9134
2.90953
2.90329
2.89388
2.88526
2.88191
2.88044
2.88081
2.88449
2.89224
2.90304
2.91047
1
1
1
1
1
1
1
1
1
1
1
1
1
1
1
1
1
1
1
1
1
1
1
1
1
1
1
1
1
1
1
1
1
1
1
1
1
1
1
1
1
1
1
1
1
1
1
1
1
1
1
1
1
1
1
1
1
1
1
1
1
1
1
1
1
1
1
1
1
1
1
1
1.89596
2.84709
2.89302
2.88817
2.8906
2.88976
2.8897
2.89338
2.90223
2.91149
2.91586
2.91544
2.91283
2.90892
2.90255
2.89307
2.88483
2.88187
2.88057
2.88127
2.88527
2.89337
2.90429
2.91141
1
1
1
1
1
1
1
1
1
1
1
1
1
1
1
1
1
1
1
1
1
1
1
1
1
1
1
1
1
1
1
1
1
1
1
1
1
1
1
1
1
1
1
1
1
1
1
1
1
1
1
1
1
1
1
1
1
1
1
1
1
1
1
1
1
1
1
1
1
1
1
1
1.89276
2.8455
2.89263
2.88811
2.89074
2.88993
2.88996
2.89372
2.90251
2.91148
2.91563
2.91512
2.91245
2.90849
2.90203
2.89252
2.88454
2.88182
2.88063
2.88154
2.88576
2.89409
2.90508
2.91202
1
1
1
1
1
1
1
1
1
1
1
1
1
1
1
1
1
1
1
1
1
1
1
1
1
1
1
1
1
1
1
1
1
1
1
1
1
1
1
1
1
1
1
1
1
1
1
1
1
1
1
1
1
1
1
1
1
1
1
1
1
1
1
1
1
1
1
1
1
1
1
1
1.89283
2.84552
2.89261
2.8881
2.89073
2.88992
2.88996
2.89372
2.90252
2.91149
2.91564
2.91513
2.91245
2.90849
2.90203
2.89252
2.88454
2.88182
2.88063
2.88154
2.88575
2.89409
2.90508
2.91202
1
1
1
1
1
1
1
1
1
1
1
1
1
1
1
1
1
1
1
1
1
1
1
1
1
1
1
1
1
1
1
1
1
1
1
1
1
1
1
1
1
1
1
1
1
1
1
1
1
1
1
1
1
1
1
1
1
1
1
1
1
1
1
1
1
1
1
1
1
1
1
1
1.89585
2.84706
2.89301
2.88816
2.89059
2.88975
2.8897
2.89338
2.90225
2.9115
2.91587
2.91545
2.91283
2.90892
2.90255
2.89307
2.88484
2.88188
2.88057
2.88127
2.88527
2.89337
2.90428
2.9114
1
1
1
1
1
1
1
1
1
1
1
1
1
1
1
1
1
1
1
1
1
1
1
1
1
1
1
1
1
1
1
1
1
1
1
1
1
1
1
1
1
1
1
1
1
1
1
1
1
1
1
1
1
1
1
1
1
1
1
1
1
1
1
1
1
1
1
1
1
1
1
1
1.90327
2.8502
2.89352
2.88825
2.89042
2.88954
2.88936
2.89291
2.90186
2.91154
2.91627
2.91597
2.9134
2.90953
2.90329
2.89388
2.88527
2.88192
2.88044
2.88082
2.88449
2.89224
2.90303
2.91046
1
1
1
1
1
1
1
1
1
1
1
1
1
1
1
1
1
1
1
1
1
1
1
1
1
1
1
1
1
1
1
1
1
1
1
1
1
1
1
1
1
1
1
1
1
1
1
1
1
1
1
1
1
1
1
1
1
1
1
1
1
1
1
1
1
1
1
1
1
1
1
1
1.91373
2.85467
2.89444
2.88861
2.89041
2.88949
2.88906
2.89232
2.90125
2.91143
2.91664
2.91653
2.914
2.9102
2.90421
2.89502
2.88596
2.88204
2.8804
2.88039
2.8836
2.89087
2.90149
2.90941
1
1
1
1
1
1
1
1
1
1
1
1
1
1
1
1
1
1
1
1
1
1
1
1
1
1
1
1
1
1
1
1
1
1
1
1
1
1
1
1
1
1
1
1
1
1
1
1
1
1
1
1
1
1
1
1
1
1
1
1
1
1
1
1
1
1
1
1
1
1
1
1
1.92674
2.86009
2.89578
2.88931
2.89069
2.88974
2.88891
2.89168
2.90035
2.91099
2.9168
2.917
2.91452
2.91085
2.90523
2.89646
2.88699
2.88234
2.88054
2.88017
2.88282
2.88947
2.89979
2.90833
1
1
1
1
1
1
1
1
1
1
1
1
1
1
1
1
1
1
1
1
1
1
1
1
1
1
1
1
1
1
1
1
1
1
1
1
1
1
1
1
1
1
1
1
1
1
1
1
1
1
1
1
1
1
1
1
1
1
1
1
1
1
1
1
1
1
1
1
1
1
1
1
1.94241
2.86644
2.89751
2.89038
2.89123
2.89027
2.88889
2.89102
2.89913
2.9101
2.91664
2.91733
2.915
2.91149
2.90635
2.89818
2.88845
2.88287
2.88092
2.88014
2.88219
2.88807
2.8979
2.90707
1
1
1
1
1
1
1
1
1
1
1
1
1
1
1
1
1
1
1
1
1
1
1
1
1
1
1
1
1
1
1
1
1
1
1
1
1
1
1
1
1
1
1
1
1
1
1
1
1
1
1
1
1
1
1
1
1
1
1
1
1
1
1
1
1
1
1
1
1
1
1
1
1.96092
2.87375
2.89963
2.8918
2.892
2.89104
2.88898
2.89037
2.89762
2.90872
2.91618
2.91761
2.91554
2.91223
2.90762
2.90023
2.89046
2.88377
2.88148
2.8803
2.88163
2.88659
2.89561
2.9052
1
1
1
1
1
1
1
1
1
1
1
1
1
1
1
1
1
1
1
1
1
1
1
1
1
1
1
1
1
1
1
1
1
1
1
1
1
1
1
1
1
1
1
1
1
1
1
1
1
1
1
1
1
1
1
1
1
1
1
1
1
1
1
1
1
1
1
1
1
1
1
1
1.98236
2.88202
2.90206
2.89352
2.893
2.89187
2.88919
2.88979
2.89592
2.90689
2.91544
2.91788
2.91626
2.91319
2.9091
2.90258
2.89306
2.88511
2.8821
2.88054
2.88101
2.88488
2.89278
2.90239
1
1
1
1
1
1
1
1
1
1
1
1
1
1
1
1
1
1
1
1
1
1
1
1
1
1
1
1
1
1
1
1
1
1
1
1
1
1
1
1
1
1
1
1
1
1
1
1
1
1
1
1
1
1
1
1
1
1
1
1
1
1
1
1
1
1
1
1
1
1
1
1
2.00668
2.89105
2.90469
2.89557
2.8943
2.89265
2.88961
2.88938
2.89417
2.90468
2.91439
2.91815
2.9172
2.91437
2.91076
2.90508
2.89611
2.88695
2.88273
2.88077
2.88033
2.88294
2.8895
2.89869
1
1
1
1
1
1
1
1
1
1
1
1
1
1
1
1
1
1
1
1
1
1
1
1
1
1
1
1
1
1
1
1
1
1
1
1
1
1
1
1
1
1
1
1
1
1
1
1
1
1
1
1
1
1
1
1
1
1
1
1
1
1
1
1
1
1
1
1
1
1
1
1
2.03363
2.90058
2.90733
2.89796
2.89604
2.89352
2.8903
2.88921
2.89265
2.9022
2.91289
2.91822
2.91827
2.91568
2.91245
2.90753
2.89936
2.88939
2.88343
2.88098
2.87963
2.881
2.8861
2.89444
1
1
1
1
1
1
1
1
1
1
1
1
1
1
1
1
1
1
1
1
1
1
1
1
1
1
1
1
1
1
1
1
1
1
1
1
1
1
1
1
1
1
1
1
1
1
1
1
1
1
1
1
1
1
1
1
1
1
1
1
1
1
1
1
1
1
1
1
1
1
1
1
2.0629
2.91025
2.90978
2.9007
2.89843
2.89472
2.89135
2.88934
2.89153
2.89963
2.91072
2.91776
2.91912
2.91701
2.91397
2.90969
2.90254
2.89244
2.88449
2.88121
2.87924
2.87935
2.88302
2.89019
1
1
1
1
1
1
1
1
1
1
1
1
1
1
1
1
1
1
1
1
1
1
1
1
1
1
1
1
1
1
1
1
1
1
1
1
1
1
1
1
1
1
1
1
1
1
1
1
1
1
1
1
1
1
1
1
1
1
1
1
1
1
1
1
1
1
1
1
1
1
1
1
2.09377
2.91968
2.91252
2.90344
2.90157
2.8966
2.89279
2.88987
2.89088
2.89711
2.90773
2.91645
2.9194
2.91814
2.91524
2.9115
2.90542
2.89596
2.88638
2.88165
2.87931
2.87841
2.88066
2.88648
1
1
1
1
1
1
1
1
1
1
1
1
1
1
1
1
1
1
1
1
1
1
1
1
1
1
1
1
1
1
1
1
1
1
1
1
1
1
1
1
1
1
1
1
1
1
1
1
1
1
1
1
1
1
1
1
1
1
1
1
1
1
1
1
1
1
1
1
1
1
1
1
2.12584
2.92812
2.9163
2.90622
2.90523
2.8996
2.89445
2.89093
2.89066
2.89481
2.90411
2.91399
2.91882
2.91889
2.91628
2.91301
2.90794
2.89969
2.88943
2.88263
2.87991
2.8783
2.87926
2.88362
1
1
1
1
1
1
1
1
1
1
1
1
1
1
1
1
1
1
1
1
1
1
1
1
1
1
1
1
1
1
1
1
1
1
1
1
1
1
1
1
1
1
1
1
1
1
1
1
1
1
1
1
1
1
1
1
1
1
1
1
1
1
1
1
1
1
1
1
1
1
1
1
2.15937
2.93526
2.92093
2.90928
2.90906
2.90368
2.89656
2.89242
2.89065
2.893
2.90027
2.91026
2.91719
2.91902
2.9173
2.91436
2.91021
2.9034
2.89359
2.88474
2.88088
2.87896
2.87875
2.88157
1
1
1
1
1
1
1
1
1
1
1
1
1
1
1
1
1
1
1
1
1
1
1
1
1
1
1
1
1
1
1
1
1
1
1
1
1
1
1
1
1
1
1
1
1
1
1
1
1
1
1
1
1
1
1
1
1
1
1
1
1
1
1
1
1
1
1
1
1
1
1
1
2.19452
2.94098
2.92609
2.91277
2.91274
2.90824
2.89968
2.89391
2.89105
2.89169
2.89674
2.90565
2.91433
2.91837
2.91819
2.91568
2.91235
2.90693
2.89839
2.8884
2.88229
2.88001
2.87883
2.88011
1
1
1
1
1
1
1
1
1
1
1
1
1
1
1
1
1
1
1
1
1
1
1
1
1
1
1
1
1
1
1
1
1
1
1
1
1
1
1
1
1
1
1
1
1
1
1
1
1
1
1
1
1
1
1
1
1
1
1
1
1
1
1
1
1
1
1
1
1
1
1
1
2.23129
2.94505
2.93145
2.91681
2.91609
2.91251
2.90392
2.89566
2.89193
2.89099
2.8939
2.90096
2.91012
2.91663
2.91851
2.91707
2.91431
2.91009
2.90315
2.89338
2.88471
2.88104
2.8793
2.8791
1
1
1
1
1
1
1
1
1
1
1
1
1
1
1
1
1
1
1
1
1
1
1
1
1
1
1
1
1
1
1
1
1
1
1
1
1
1
1
1
1
1
1
1
1
1
1
1
1
1
1
1
1
1
1
1
1
1
1
1
1
1
1
1
1
1
1
1
1
1
1
1
2.2695
2.94696
2.93668
2.92144
2.91918
2.91608
2.90868
2.89862
2.89307
2.89104
2.892
2.8969
2.90501
2.91345
2.9178
2.91802
2.9159
2.91266
2.90728
2.89884
2.88879
2.88232
2.87995
2.8786
1
1
1
1
1
1
1
1
1
1
1
1
1
1
1
1
1
1
1
1
1
1
1
1
1
1
1
1
1
1
1
1
1
1
1
1
1
1
1
1
1
1
1
1
1
1
1
1
1
1
1
1
1
1
1
1
1
1
1
1
1
1
1
1
1
1
1
1
1
1
1
1
2.30889
2.94671
2.94027
2.92639
2.92225
2.91914
2.91327
2.90307
2.89479
2.89184
2.89118
2.89374
2.89989
2.9085
2.91555
2.91801
2.91704
2.91448
2.91046
2.90383
2.89427
2.88502
2.88075
2.8787
1
1
1
1
1
1
1
1
1
1
1
1
1
1
1
1
1
1
1
1
1
1
1
1
1
1
1
1
1
1
1
1
1
1
1
1
1
1
1
1
1
1
1
1
1
1
1
1
1
1
1
1
1
1
1
1
1
1
1
1
1
1
1
1
1
1
1
1
1
1
1
1
2.34768
2.94575
2.94127
2.93098
2.92531
2.92206
2.91746
2.90834
2.89818
2.89296
2.89129
2.89166
2.89541
2.90247
2.91114
2.91654
2.91739
2.91572
2.91274
2.90788
2.9001
2.89002
2.88248
2.87954
1
1
1
1
1
1
1
1
1
1
1
1
1
1
1
1
1
1
1
1
1
1
1
1
1
1
1
1
1
1
1
1
1
1
1
1
1
1
1
1
1
1
1
1
1
1
1
1
1
1
1
1
1
1
1
1
1
1
1
1
1
1
1
1
1
1
1
1
1
1
1
1.00098
2.38735
2.94274
2.94077
2.93435
2.92818
2.92482
2.92128
2.91361
2.9032
2.89498
2.89192
2.89071
2.89193
2.89662
2.90465
2.91291
2.91672
2.9165
2.91439
2.91098
2.90533
2.89657
2.88668
2.88113
1
1
1
1
1
1
1
1
1
1
1
1
1
1
1
1
1
1
1
1
1
1
1
1
1
1
1
1
1
1
1
1
1
1
1
1
1
1
1
1
1
1
1
1
1
1
1
1
1
1
1
1
1
1
1
1
1
1
1
1
1
1
1
1
1
1
1
1
1
1
1
1.04875
2.43212
2.93731
2.93851
2.93569
2.93091
2.92718
2.92453
2.91834
2.90879
2.89884
2.89283
2.89066
2.88985
2.89196
2.89781
2.90676
2.9142
2.91661
2.91574
2.91337
2.90953
2.90305
2.89344
2.88468
1
1
1
1
1
1
1
1
1
1
1
1
1
1
1
1
1
1
1
1
1
1
1
1
1
1
1
1
1
1
1
1
1
1
1
1
1
1
1
1
1
1
1
1
1
1
1
1
1
1
1
1
1
1
1
1
1
1
1
1
1
1
1
1
1
1
1
1
1
1
1
1.1258
2.48003
2.92924
2.93484
2.93449
2.93254
2.92927
2.9269
2.92208
2.91393
2.90395
2.8953
2.89107
2.8892
2.88915
2.89242
2.89963
2.9091
2.91527
2.91653
2.9152
2.91255
2.90813
2.90065
2.89103
1
1
1
1
1
1
1
1
1
1
1
1
1
1
1
1
1
1
1
1
1
1
1
1
1
1
1
1
1
1
1
1
1
1
1
1
1
1
1
1
1
1
1
1
1
1
1
1
1
1
1
1
1
1
1
1
1
1
1
1
1
1
1
1
1
1
1
1
1
1
1
1.22043
2.53103
2.92019
2.92953
2.93111
2.93186
2.93071
2.92846
2.92461
2.91804
2.90917