/*--------------------------------*- C++ -*----------------------------------*\
  =========                 |
  \\      /  F ield         | OpenFOAM: The Open Source CFD Toolbox
   \\    /   O peration     | Website:  https://openfoam.org
    \\  /    A nd           | Version:  7
     \\/     M anipulation  |
\*---------------------------------------------------------------------------*/
FoamFile
{
    version     2.0;
    format      ascii;
    class       volVectorField;
    location    "3.6";
    object      U;
}
// * * * * * * * * * * * * * * * * * * * * * * * * * * * * * * * * * * * * * //

dimensions      [0 1 -1 0 0 0 0];

internalField   nonuniform List<vector> 
73728
(
(3 -2.62663e-17 0)
(3 1.07799e-16 0)
(3 -1.88694e-16 0)
(3 -3.64003e-16 0)
(3 -1.19058e-17 0)
(3 2.86665e-16 0)
(3 3.0218e-16 0)
(3 5.12759e-16 0)
(3 1.15513e-15 0)
(3 1.02699e-15 0)
(3 5.13028e-16 0)
(3 6.3792e-16 0)
(3 4.94322e-16 0)
(3 -6.203e-17 0)
(3 -4.25354e-16 0)
(3 -3.42185e-16 0)
(3 -2.91709e-16 0)
(3 -3.00293e-16 0)
(3 -2.55985e-16 0)
(3 -8.20962e-17 0)
(3 4.42646e-17 0)
(3 8.86101e-16 0)
(3 9.08107e-16 0)
(3 1.00209e-15 0)
(3 8.17069e-16 0)
(3 8.82491e-16 0)
(3 9.91825e-16 0)
(3 8.85539e-16 0)
(3 9.8136e-16 0)
(3 2.50066e-16 0)
(3 3.06974e-16 0)
(3 2.71538e-16 0)
(3 -9.17897e-17 0)
(3 7.97287e-17 0)
(3 1.94084e-16 0)
(3 7.45077e-16 0)
(3 1.43122e-16 0)
(3 -3.86905e-16 0)
(3 -7.6752e-16 0)
(3 -8.59379e-16 0)
(3 -6.71142e-16 0)
(3 -1.65788e-15 0)
(3 -1.97341e-15 0)
(3 -1.97825e-15 0)
(3 -2.36429e-15 0)
(3 -2.15162e-15 0)
(3 -8.62296e-16 0)
(3 -8.79156e-16 0)
(3 -7.29069e-16 0)
(3 -2.80165e-16 0)
(3 -3.6248e-16 0)
(3 -3.53141e-16 0)
(3 -1.15713e-16 0)
(3 1.15415e-16 0)
(3 3.92319e-16 0)
(3 4.84138e-16 0)
(3 7.89109e-16 0)
(3 9.71278e-16 0)
(3 8.08069e-16 0)
(3 6.84186e-16 0)
(3 7.19457e-16 0)
(3 -1.69277e-16 0)
(3 -5.10183e-16 0)
(3 -4.05535e-16 0)
(3 -5.98097e-16 0)
(3 -9.93151e-16 0)
(3 -8.97291e-16 0)
(3 -3.52891e-16 0)
(3 -1.37097e-16 0)
(3 -1.62803e-16 0)
(1.20991 0.00179201 0)
(0.635763 0.000863271 0)
(0.616577 0.0055022 0)
(0.608253 0.0033182 0)
(0.5978 0.00314017 0)
(0.58485 0.00341496 0)
(0.567598 0.00349508 0)
(0.548104 0.00342857 0)
(0.534897 0.00348181 0)
(0.527612 0.0037054 0)
(0.525111 0.00396341 0)
(0.525913 0.00433198 0)
(0.52959 0.00477356 0)
(0.530932 0.00525119 0)
(0.528387 0.00562359 0)
(0.522302 0.00614732 0)
(0.510213 0.00667628 0)
(0.492638 0.00716931 0)
(0.469697 0.00758412 0)
(0.443266 0.00814465 0)
(0.417247 0.00849511 0)
(0.397887 0.00961308 0)
(0.379953 0.0120047 0)
(0.362211 0.0146957 0)
(0.34148 0.0279869 0)
(0.295589 0.0382248 0)
(3 -1.95144e-16 0)
(3 -3.79151e-16 0)
(3 -2.01468e-16 0)
(3 -2.77653e-16 0)
(3 5.18283e-16 0)
(3 7.9403e-16 0)
(3 9.38499e-16 0)
(3 1.70943e-15 0)
(3 2.32514e-15 0)
(3 2.02566e-15 0)
(3 1.63136e-15 0)
(3 4.17153e-16 0)
(3 2.04203e-16 0)
(3 -9.90775e-18 0)
(3 -3.3992e-16 0)
(3 -2.23673e-16 0)
(3 2.08046e-17 0)
(3 2.39388e-16 0)
(3 4.40854e-16 0)
(3 4.14982e-16 0)
(3 9.27675e-16 0)
(3 2.03125e-15 0)
(3 1.97645e-15 0)
(3 1.66872e-15 0)
(3 1.20146e-15 0)
(3 1.076e-15 0)
(3 1.20428e-15 0)
(3 1.29864e-15 0)
(3 1.44984e-15 0)
(3 6.06189e-16 0)
(3 6.65599e-16 0)
(3 9.44988e-16 0)
(3 1.01014e-15 0)
(3 1.44541e-15 0)
(3 1.42383e-15 0)
(3 1.53968e-15 0)
(3 -1.23993e-16 0)
(3 -1.70811e-15 0)
(3 -2.12011e-15 0)
(3 -2.26394e-15 0)
(3 -2.37585e-15 0)
(3 -2.27753e-15 0)
(3 -1.80939e-15 0)
(3 -2.16006e-15 0)
(3 -2.64516e-15 0)
(3 -2.06788e-15 0)
(3 -1.08625e-15 0)
(3 -1.65076e-15 0)
(3 -1.31276e-15 0)
(3 -6.42052e-16 0)
(3 -1.22164e-15 0)
(3 -3.87857e-16 0)
(3 -2.93355e-16 0)
(3 -7.63348e-16 0)
(3 3.27414e-16 0)
(3 1.50156e-15 0)
(3 1.18761e-15 0)
(3 9.70118e-16 0)
(3 1.20869e-15 0)
(3 1.23549e-15 0)
(3 -4.86825e-17 0)
(3 -9.37807e-16 0)
(3 -7.81764e-16 0)
(3 -6.56643e-16 0)
(3 -1.00184e-15 0)
(3 -1.13692e-15 0)
(3 -1.01803e-15 0)
(3 -3.63131e-16 0)
(3 4.75346e-16 0)
(3 5.39654e-16 0)
(1.21374 0.00883567 0)
(0.634897 0.00583919 0)
(0.614182 0.0148189 0)
(0.606774 0.0103904 0)
(0.595814 0.00914022 0)
(0.582833 0.00987454 0)
(0.565581 0.0102378 0)
(0.546304 0.0101186 0)
(0.533659 0.0102622 0)
(0.526718 0.0109206 0)
(0.524387 0.0116887 0)
(0.52539 0.0128192 0)
(0.529048 0.0142541 0)
(0.530063 0.0157886 0)
(0.52749 0.0170415 0)
(0.521252 0.0187763 0)
(0.50926 0.0205507 0)
(0.49195 0.0221479 0)
(0.469203 0.0235446 0)
(0.442968 0.0250323 0)
(0.417589 0.0264894 0)
(0.398799 0.0296257 0)
(0.383926 0.0354639 0)
(0.37087 0.0444514 0)
(0.363238 0.0628115 0)
(0.338846 0.0817446 0)
(3 -1.63976e-16 0)
(3 -3.94045e-16 0)
(3 1.72799e-16 0)
(3 5.27127e-16 0)
(3 4.76515e-16 0)
(3 2.18374e-16 0)
(3 4.95507e-16 0)
(3 1.15927e-15 0)
(3 1.13438e-15 0)
(3 1.27366e-15 0)
(3 1.0833e-15 0)
(3 -3.54957e-16 0)
(3 -3.68105e-16 0)
(3 -2.7443e-16 0)
(3 -4.75541e-16 0)
(3 -4.53467e-16 0)
(3 1.42617e-16 0)
(3 4.82352e-16 0)
(3 9.62566e-16 0)
(3 5.6018e-16 0)
(3 8.04338e-16 0)
(3 9.58575e-16 0)
(3 1.80693e-15 0)
(3 1.71298e-15 0)
(3 1.07152e-15 0)
(3 6.75129e-16 0)
(3 6.85968e-16 0)
(3 6.91643e-16 0)
(3 4.50556e-16 0)
(3 6.30507e-16 0)
(3 5.35808e-16 0)
(3 1.19533e-15 0)
(3 1.42301e-15 0)
(3 1.17448e-15 0)
(3 1.1909e-15 0)
(3 1.02932e-15 0)
(3 -3.69109e-16 0)
(3 -1.12394e-15 0)
(3 -1.91967e-15 0)
(3 -2.3125e-15 0)
(3 -1.95526e-15 0)
(3 -1.89939e-15 0)
(3 -1.94884e-15 0)
(3 -1.66407e-15 0)
(3 -1.30654e-15 0)
(3 -8.99626e-16 0)
(3 -8.97492e-16 0)
(3 -1.18976e-15 0)
(3 -9.80638e-16 0)
(3 -5.60461e-16 0)
(3 1.38151e-16 0)
(3 8.83205e-16 0)
(3 9.7831e-16 0)
(3 2.45749e-16 0)
(3 3.92585e-17 0)
(3 1.58128e-16 0)
(3 -1.54161e-16 0)
(3 -4.3969e-16 0)
(3 1.16703e-16 0)
(3 7.35311e-16 0)
(3 5.27478e-16 0)
(3 -1.394e-16 0)
(3 -2.94212e-16 0)
(3 -2.96743e-16 0)
(3 -3.32624e-16 0)
(3 -5.63468e-16 0)
(3 -1.78957e-16 0)
(3 3.48068e-16 0)
(3 6.25172e-16 0)
(3 3.45326e-16 0)
(1.22465 0.0156108 0)
(0.636301 0.0115164 0)
(0.614273 0.0229267 0)
(0.607653 0.0178509 0)
(0.596104 0.01569 0)
(0.582786 0.0165341 0)
(0.565217 0.0170083 0)
(0.546044 0.0168566 0)
(0.53407 0.0171762 0)
(0.527621 0.0182772 0)
(0.525587 0.0195713 0)
(0.527002 0.02149 0)
(0.530859 0.0237958 0)
(0.531786 0.0262712 0)
(0.529046 0.0285043 0)
(0.522754 0.0311019 0)
(0.511199 0.0337271 0)
(0.494432 0.0361333 0)
(0.47214 0.0383543 0)
(0.446425 0.0406856 0)
(0.422186 0.0433216 0)
(0.405057 0.0473126 0)
(0.394667 0.0545083 0)
(0.388349 0.0650672 0)
(0.387758 0.0821236 0)
(0.379041 0.104334 0)
(3 2.77756e-17 0)
(3 3.55518e-16 0)
(3 6.66033e-16 0)
(3 7.95767e-16 0)
(3 3.37634e-16 0)
(3 3.38216e-16 0)
(3 3.99271e-16 0)
(3 7.40797e-16 0)
(3 1.39385e-15 0)
(3 9.63192e-16 0)
(3 5.84734e-16 0)
(3 8.92105e-17 0)
(3 -2.98616e-16 0)
(3 -4.52018e-16 0)
(3 -4.26918e-16 0)
(3 -5.08819e-16 0)
(3 -1.90093e-16 0)
(3 -2.09076e-16 0)
(3 -9.4744e-16 0)
(3 -6.68666e-16 0)
(3 -9.65383e-16 0)
(3 -7.93375e-16 0)
(3 1.30354e-16 0)
(3 4.47101e-16 0)
(3 9.33216e-16 0)
(3 1.04422e-15 0)
(3 7.31787e-16 0)
(3 6.87329e-16 0)
(3 2.38175e-16 0)
(3 4.02449e-16 0)
(3 7.2837e-16 0)
(3 5.07062e-16 0)
(3 -1.09455e-16 0)
(3 -2.94175e-16 0)
(3 -4.81692e-16 0)
(3 -2.73462e-16 0)
(3 -5.2303e-16 0)
(3 -1.63855e-15 0)
(3 -2.0417e-15 0)
(3 -1.97934e-15 0)
(3 -1.84306e-15 0)
(3 -2.18134e-15 0)
(3 -2.41798e-15 0)
(3 -1.70665e-15 0)
(3 -1.22169e-15 0)
(3 -1.66214e-15 0)
(3 -1.44947e-15 0)
(3 -8.9665e-16 0)
(3 -9.51751e-16 0)
(3 -6.93971e-16 0)
(3 1.70702e-16 0)
(3 3.90322e-16 0)
(3 6.29202e-16 0)
(3 9.1484e-16 0)
(3 3.45648e-16 0)
(3 -5.19603e-17 0)
(3 -8.27299e-16 0)
(3 -3.71342e-16 0)
(3 -7.24594e-17 0)
(3 2.18204e-16 0)
(3 1.85306e-16 0)
(3 -4.01638e-16 0)
(3 -1.00061e-15 0)
(3 -1.81767e-15 0)
(3 -9.16086e-16 0)
(3 -1.06173e-15 0)
(3 -5.53599e-17 0)
(3 5.90763e-16 0)
(3 1.54575e-16 0)
(3 -7.05169e-17 0)
(1.24076 0.0218135 0)
(0.63819 0.0172638 0)
(0.614212 0.0303059 0)
(0.608158 0.0250568 0)
(0.596537 0.022258 0)
(0.58311 0.0230808 0)
(0.565294 0.0236254 0)
(0.546526 0.0233898 0)
(0.535676 0.0237996 0)
(0.530053 0.0252447 0)
(0.528562 0.0270375 0)
(0.530616 0.0297075 0)
(0.534679 0.0329624 0)
(0.535366 0.036387 0)
(0.532506 0.0394748 0)
(0.526133 0.0427405 0)
(0.515234 0.0460185 0)
(0.499144 0.0490273 0)
(0.477554 0.0518877 0)
(0.45254 0.0547597 0)
(0.429328 0.0581064 0)
(0.41459 0.0626088 0)
(0.408248 0.0696716 0)
(0.406984 0.0798241 0)
(0.410142 0.0938302 0)
(0.409763 0.112732 0)
(3 1.63219e-16 0)
(3 3.8235e-16 0)
(3 1.48657e-16 0)
(3 1.30682e-16 0)
(3 -2.04291e-16 0)
(3 4.43506e-16 0)
(3 1.00662e-15 0)
(3 1.37096e-15 0)
(3 9.77327e-16 0)
(3 9.77674e-16 0)
(3 5.3807e-16 0)
(3 -2.558e-16 0)
(3 -9.97294e-16 0)
(3 -1.18354e-15 0)
(3 -5.26754e-16 0)
(3 2.82237e-16 0)
(3 -1.73581e-17 0)
(3 -6.42274e-16 0)
(3 -1.70053e-15 0)
(3 -1.47592e-15 0)
(3 -1.55446e-15 0)
(3 -3.13235e-16 0)
(3 8.27772e-17 0)
(3 8.6453e-17 0)
(3 9.59705e-16 0)
(3 2.05726e-15 0)
(3 2.22454e-15 0)
(3 1.05915e-15 0)
(3 7.31865e-16 0)
(3 3.62292e-16 0)
(3 4.19433e-16 0)
(3 9.59258e-17 0)
(3 -8.67267e-16 0)
(3 -1.0812e-15 0)
(3 -1.24067e-15 0)
(3 -9.94318e-16 0)
(3 -6.3982e-16 0)
(3 -1.34886e-15 0)
(3 -1.69719e-15 0)
(3 -1.68206e-15 0)
(3 -2.31479e-15 0)
(3 -1.89487e-15 0)
(3 -1.68606e-15 0)
(3 -2.07742e-15 0)
(3 -2.28724e-15 0)
(3 -3.23097e-15 0)
(3 -2.60017e-15 0)
(3 -2.04277e-15 0)
(3 -1.78657e-15 0)
(3 -6.1099e-16 0)
(3 3.02281e-16 0)
(3 8.1385e-17 0)
(3 -4.34858e-16 0)
(3 -2.70396e-16 0)
(3 1.82443e-16 0)
(3 -3.95463e-16 0)
(3 -3.26619e-16 0)
(3 6.16916e-16 0)
(3 5.70968e-16 0)
(3 5.51565e-16 0)
(3 5.47153e-19 0)
(3 6.89953e-17 0)
(3 -7.9697e-16 0)
(3 -9.05582e-16 0)
(3 -8.81459e-16 0)
(3 -5.78027e-16 0)
(3 -5.53736e-16 0)
(3 -5.23853e-16 0)
(3 -2.60158e-16 0)
(3 -2.53133e-16 0)
(1.26192 0.0281461 0)
(0.640231 0.0233593 0)
(0.613657 0.0373264 0)
(0.608019 0.0318946 0)
(0.596342 0.0286735 0)
(0.582628 0.0293469 0)
(0.56442 0.0298957 0)
(0.546354 0.029685 0)
(0.536935 0.030299 0)
(0.532372 0.0320558 0)
(0.531659 0.0344033 0)
(0.534564 0.0378722 0)
(0.538785 0.0420815 0)
(0.539074 0.0462542 0)
(0.536113 0.0499682 0)
(0.52967 0.0537551 0)
(0.519549 0.0574306 0)
(0.504374 0.060754 0)
(0.483816 0.0639081 0)
(0.459676 0.0669811 0)
(0.437823 0.0706605 0)
(0.425411 0.0758013 0)
(0.422038 0.0824793 0)
(0.423971 0.0917468 0)
(0.429361 0.103648 0)
(0.432366 0.119692 0)
(3 1.94024e-16 0)
(3 -2.58442e-17 0)
(3 -2.73966e-16 0)
(3 -2.95373e-16 0)
(3 -3.16703e-16 0)
(3 -1.49614e-16 0)
(3 4.36347e-16 0)
(3 8.50511e-16 0)
(3 7.564e-17 0)
(3 7.11557e-17 0)
(3 4.00844e-16 0)
(3 2.46639e-16 0)
(3 -7.02302e-16 0)
(3 -5.67267e-16 0)
(3 -4.08739e-16 0)
(3 -3.26474e-16 0)
(3 -3.43348e-16 0)
(3 -3.2405e-16 0)
(3 4.2831e-17 0)
(3 1.60981e-16 0)
(3 2.8213e-16 0)
(3 5.1096e-16 0)
(3 2.82717e-17 0)
(3 2.76537e-16 0)
(3 8.41793e-16 0)
(3 1.57785e-15 0)
(3 2.56314e-15 0)
(3 2.08041e-15 0)
(3 1.38054e-15 0)
(3 1.22741e-15 0)
(3 1.03038e-15 0)
(3 3.30197e-16 0)
(3 -3.86458e-16 0)
(3 -6.03072e-16 0)
(3 -4.45036e-16 0)
(3 -1.2102e-15 0)
(3 -1.74073e-15 0)
(3 -1.00567e-15 0)
(3 -4.43623e-16 0)
(3 1.98941e-16 0)
(3 -5.53063e-17 0)
(3 -2.61332e-16 0)
(3 -5.6529e-16 0)
(3 -1.19548e-15 0)
(3 -2.58919e-15 0)
(3 -3.1542e-15 0)
(3 -1.22962e-15 0)
(3 -1.50771e-16 0)
(3 5.77427e-16 0)
(3 6.96762e-16 0)
(3 7.20242e-16 0)
(3 1.85496e-16 0)
(3 -5.35762e-16 0)
(3 -6.86113e-16 0)
(3 -1.22763e-15 0)
(3 -8.97265e-16 0)
(3 -3.30099e-16 0)
(3 -2.67735e-16 0)
(3 -1.63702e-16 0)
(3 1.49815e-16 0)
(3 7.50567e-17 0)
(3 -1.36358e-16 0)
(3 2.34307e-17 0)
(3 5.03375e-16 0)
(3 2.5277e-17 0)
(3 7.42632e-17 0)
(3 -6.88184e-17 0)
(3 -8.69318e-16 0)
(3 -5.13404e-16 0)
(3 -4.69009e-16 0)
(1.2891 0.0345261 0)
(0.642951 0.0297009 0)
(0.612891 0.0441663 0)
(0.607696 0.0383703 0)
(0.595884 0.0348348 0)
(0.581717 0.03528 0)
(0.563149 0.0357914 0)
(0.546371 0.0356608 0)
(0.538452 0.0364961 0)
(0.53507 0.0384535 0)
(0.535355 0.0414617 0)
(0.539263 0.0457244 0)
(0.543462 0.050861 0)
(0.54309 0.0556329 0)
(0.539836 0.059883 0)
(0.533338 0.0640636 0)
(0.52392 0.0678616 0)
(0.509851 0.0711572 0)
(0.490485 0.0741302 0)
(0.467301 0.07704 0)
(0.44781 0.0807526 0)
(0.437217 0.0863748 0)
(0.435889 0.0928304 0)
(0.439738 0.1014 0)
(0.446268 0.112235 0)
(0.451099 0.126099 0)
(3 -4.99913e-18 0)
(3 -1.32306e-16 0)
(3 2.71824e-16 0)
(3 3.36571e-16 0)
(3 4.86859e-16 0)
(3 5.00758e-16 0)
(3 7.11123e-16 0)
(3 8.85179e-16 0)
(3 5.1036e-16 0)
(3 -3.71183e-16 0)
(3 1.34936e-16 0)
(3 1.85636e-16 0)
(3 7.24587e-17 0)
(3 -4.09883e-16 0)
(3 -8.43351e-16 0)
(3 -1.36795e-15 0)
(3 -2.37334e-15 0)
(3 -2.43329e-15 0)
(3 -1.56491e-15 0)
(3 -1.02449e-15 0)
(3 -5.6035e-16 0)
(3 -4.15169e-17 0)
(3 3.45869e-16 0)
(3 5.43342e-16 0)
(3 6.63172e-16 0)
(3 5.42713e-16 0)
(3 5.12812e-16 0)
(3 9.01696e-16 0)
(3 8.67147e-16 0)
(3 7.9216e-16 0)
(3 4.91422e-16 0)
(3 8.96169e-16 0)
(3 1.6688e-15 0)
(3 1.57319e-15 0)
(3 6.48068e-16 0)
(3 -7.16639e-17 0)
(3 -5.77489e-16 0)
(3 -5.51641e-16 0)
(3 5.43899e-16 0)
(3 1.31583e-15 0)
(3 1.59765e-15 0)
(3 2.37254e-16 0)
(3 -1.66657e-16 0)
(3 -8.16304e-16 0)
(3 -1.02425e-15 0)
(3 -6.22992e-16 0)
(3 3.13751e-16 0)
(3 6.68163e-16 0)
(3 5.26704e-16 0)
(3 6.03858e-16 0)
(3 -1.17888e-16 0)
(3 -2.95066e-16 0)
(3 1.85777e-16 0)
(3 1.04567e-18 0)
(3 2.33736e-16 0)
(3 -7.07297e-17 0)
(3 -2.97652e-16 0)
(3 -1.45546e-16 0)
(3 2.14757e-16 0)
(3 4.98169e-17 0)
(3 3.36312e-16 0)
(3 4.43002e-16 0)
(3 5.6008e-16 0)
(3 2.77629e-16 0)
(3 9.50978e-16 0)
(3 9.24107e-16 0)
(3 4.4278e-16 0)
(3 -5.00817e-16 0)
(3 -1.07616e-15 0)
(3 -3.40741e-16 0)
(1.32253 0.0407353 0)
(0.646366 0.0363184 0)
(0.611893 0.0508233 0)
(0.607347 0.0444312 0)
(0.595265 0.0406232 0)
(0.580486 0.0407863 0)
(0.561676 0.0412758 0)
(0.546852 0.041372 0)
(0.54019 0.0425691 0)
(0.538162 0.0446271 0)
(0.539633 0.0483293 0)
(0.54472 0.0533435 0)
(0.548654 0.0592595 0)
(0.54743 0.0644797 0)
(0.54363 0.0692241 0)
(0.53702 0.0736903 0)
(0.528004 0.0774507 0)
(0.515033 0.0804614 0)
(0.496742 0.0828057 0)
(0.474816 0.085102 0)
(0.458545 0.0886235 0)
(0.449905 0.0944179 0)
(0.449794 0.100851 0)
(0.454774 0.10896 0)
(0.461856 0.119331 0)
(0.467937 0.131753 0)
(3 -2.59178e-16 0)
(3 -2.61673e-16 0)
(3 4.8323e-17 0)
(3 3.10991e-16 0)
(3 5.02657e-16 0)
(3 9.54051e-16 0)
(3 1.34888e-15 0)
(3 8.05577e-16 0)
(3 3.50768e-16 0)
(3 1.61393e-16 0)
(3 -2.34696e-17 0)
(3 1.13643e-17 0)
(3 4.21713e-16 0)
(3 5.76143e-16 0)
(3 -2.52481e-16 0)
(3 -4.86987e-16 0)
(3 -9.49413e-16 0)
(3 -1.1753e-15 0)
(3 -1.39541e-15 0)
(3 -1.71987e-15 0)
(3 -1.63638e-15 0)
(3 -7.36815e-16 0)
(3 -1.08858e-16 0)
(3 5.49228e-16 0)
(3 1.37568e-15 0)
(3 1.12065e-15 0)
(3 5.50619e-16 0)
(3 5.62885e-16 0)
(3 6.49825e-16 0)
(3 2.30698e-16 0)
(3 1.01315e-15 0)
(3 1.1861e-15 0)
(3 1.23093e-15 0)
(3 9.83076e-16 0)
(3 5.22898e-16 0)
(3 5.59743e-16 0)
(3 4.8864e-16 0)
(3 3.20855e-16 0)
(3 -7.41605e-16 0)
(3 -8.77094e-16 0)
(3 -1.09614e-15 0)
(3 -1.50575e-15 0)
(3 -1.51121e-15 0)
(3 -9.39155e-16 0)
(3 -5.62643e-16 0)
(3 -1.15489e-15 0)
(3 -1.33488e-15 0)
(3 -1.44298e-15 0)
(3 -1.21013e-15 0)
(3 -7.31128e-16 0)
(3 -4.17561e-16 0)
(3 4.41805e-17 0)
(3 -6.77415e-16 0)
(3 -1.05638e-15 0)
(3 -5.64453e-16 0)
(3 -5.64178e-16 0)
(3 -6.9642e-16 0)
(3 -4.69085e-16 0)
(3 -7.00083e-17 0)
(3 2.53567e-16 0)
(3 1.31589e-15 0)
(3 1.7386e-15 0)
(3 1.05856e-15 0)
(3 7.23762e-16 0)
(3 5.71025e-16 0)
(3 1.25064e-16 0)
(3 -7.34068e-16 0)
(3 -9.9369e-16 0)
(3 -9.7294e-16 0)
(3 7.67136e-16 0)
(1.36227 0.046696 0)
(0.650424 0.043151 0)
(0.61064 0.0572121 0)
(0.606862 0.0499788 0)
(0.594409 0.0459659 0)
(0.57888 0.0458157 0)
(0.56022 0.0463412 0)
(0.54787 0.0468348 0)
(0.542467 0.0483862 0)
(0.541656 0.0506619 0)
(0.544617 0.0550205 0)
(0.550875 0.0607176 0)
(0.554276 0.067168 0)
(0.5522 0.0727062 0)
(0.547695 0.0779278 0)
(0.540854 0.0825941 0)
(0.532014 0.0862343 0)
(0.519774 0.0887511 0)
(0.50225 0.0902163 0)
(0.481943 0.0917043 0)
(0.46933 0.0948404 0)
(0.4632 0.100096 0)
(0.463873 0.106378 0)
(0.469585 0.114153 0)
(0.477037 0.124275 0)
(0.483691 0.135827 0)
(3 -1.03992e-16 0)
(3 -3.46588e-16 0)
(3 -2.33633e-16 0)
(3 -1.69221e-16 0)
(3 1.48451e-16 0)
(3 1.57583e-16 0)
(3 1.39056e-16 0)
(3 -8.51534e-17 0)
(3 1.66298e-16 0)
(3 1.31968e-16 0)
(3 -1.8103e-16 0)
(3 -3.43061e-16 0)
(3 6.69589e-17 0)
(3 2.66391e-16 0)
(3 2.62294e-16 0)
(3 -3.74888e-17 0)
(3 4.59594e-16 0)
(3 4.51604e-16 0)
(3 1.28411e-17 0)
(3 1.22247e-16 0)
(3 -6.2518e-16 0)
(3 -7.3182e-16 0)
(3 -7.7999e-16 0)
(3 -1.53206e-16 0)
(3 1.07636e-16 0)
(3 6.64585e-17 0)
(3 -1.31808e-16 0)
(3 -3.10329e-16 0)
(3 2.02865e-17 0)
(3 1.37706e-16 0)
(3 3.36042e-16 0)
(3 8.42723e-16 0)
(3 1.55624e-17 0)
(3 -3.23661e-16 0)
(3 1.61178e-16 0)
(3 9.38319e-16 0)
(3 7.33869e-16 0)
(3 -5.83066e-16 0)
(3 -1.03089e-15 0)
(3 -1.18401e-15 0)
(3 -1.71176e-15 0)
(3 -1.89046e-15 0)
(3 -1.36507e-15 0)
(3 -3.50777e-16 0)
(3 -3.84038e-16 0)
(3 -8.16298e-16 0)
(3 -1.60319e-15 0)
(3 -1.71292e-15 0)
(3 -1.53256e-15 0)
(3 -1.55252e-15 0)
(3 -1.2961e-15 0)
(3 -1.51661e-15 0)
(3 -1.28907e-15 0)
(3 -1.19068e-15 0)
(3 -1.30516e-15 0)
(3 -8.426e-16 0)
(3 -7.5808e-16 0)
(3 -1.19473e-15 0)
(3 -1.38844e-15 0)
(3 3.58934e-17 0)
(3 6.01327e-16 0)
(3 6.41861e-16 0)
(3 9.20917e-16 0)
(3 5.73629e-16 0)
(3 -3.17317e-17 0)
(3 -1.37614e-15 0)
(3 -1.6385e-15 0)
(3 -1.07645e-15 0)
(3 1.79025e-16 0)
(3 5.25188e-16 0)
(1.40842 0.0524005 0)
(0.65506 0.050178 0)
(0.609089 0.0633227 0)
(0.606159 0.0549211 0)
(0.593122 0.0507737 0)
(0.576793 0.0502954 0)
(0.559083 0.0509839 0)
(0.549374 0.0520524 0)
(0.545227 0.0539484 0)
(0.545597 0.0567373 0)
(0.550205 0.0616814 0)
(0.55737 0.0679167 0)
(0.560039 0.0745779 0)
(0.557282 0.0802803 0)
(0.552127 0.0858509 0)
(0.544879 0.0906636 0)
(0.535975 0.0941735 0)
(0.52386 0.0961493 0)
(0.506738 0.0967749 0)
(0.488585 0.0975067 0)
(0.479603 0.100385 0)
(0.475973 0.104894 0)
(0.477776 0.110235 0)
(0.484172 0.117501 0)
(0.492113 0.127088 0)
(0.498508 0.137929 0)
(3 1.05639e-16 0)
(3 4.11307e-16 0)
(3 2.06965e-17 0)
(3 5.63325e-17 0)
(3 1.30765e-17 0)
(3 -2.94125e-16 0)
(3 -3.24052e-16 0)
(3 4.82286e-16 0)
(3 -2.60574e-16 0)
(3 -1.21259e-15 0)
(3 -1.3688e-15 0)
(3 -1.15549e-15 0)
(3 -1.08864e-15 0)
(3 -1.02724e-15 0)
(3 -4.43287e-16 0)
(3 1.80677e-16 0)
(3 8.04105e-16 0)
(3 9.92938e-16 0)
(3 5.18266e-16 0)
(3 2.53884e-16 0)
(3 -2.33349e-16 0)
(3 -1.46193e-15 0)
(3 -1.53703e-15 0)
(3 -9.864e-16 0)
(3 -9.90019e-16 0)
(3 -7.13117e-16 0)
(3 -1.61606e-16 0)
(3 -1.11545e-16 0)
(3 6.78798e-16 0)
(3 1.11034e-15 0)
(3 1.09113e-15 0)
(3 1.0176e-15 0)
(3 1.07686e-15 0)
(3 9.01696e-16 0)
(3 1.86657e-15 0)
(3 2.6231e-15 0)
(3 2.23955e-15 0)
(3 -2.7984e-16 0)
(3 -9.23624e-16 0)
(3 -9.68734e-16 0)
(3 6.53078e-16 0)
(3 1.05731e-15 0)
(3 1.45284e-15 0)
(3 2.02462e-15 0)
(3 1.03365e-15 0)
(3 1.12818e-15 0)
(3 -1.05128e-15 0)
(3 -2.21075e-15 0)
(3 -2.06234e-15 0)
(3 -2.40303e-15 0)
(3 -2.11099e-15 0)
(3 -9.90582e-16 0)
(3 -3.49978e-16 0)
(3 7.84856e-17 0)
(3 1.47507e-17 0)
(3 2.12965e-16 0)
(3 3.95844e-16 0)
(3 -2.42205e-16 0)
(3 -1.72439e-16 0)
(3 -1.05975e-15 0)
(3 -1.37521e-15 0)
(3 -1.16984e-15 0)
(3 -1.33009e-16 0)
(3 -3.06962e-16 0)
(3 -1.03644e-15 0)
(3 -1.23668e-15 0)
(3 3.00486e-16 0)
(3 1.52874e-15 0)
(3 8.97219e-16 0)
(3 -2.90471e-16 0)
(1.46117 0.0578272 0)
(0.660252 0.0573496 0)
(0.607271 0.069198 0)
(0.605136 0.0591953 0)
(0.591196 0.0549671 0)
(0.574227 0.0541927 0)
(0.558708 0.055269 0)
(0.551323 0.0570487 0)
(0.548531 0.0592864 0)
(0.550112 0.0628432 0)
(0.556274 0.0683899 0)
(0.563798 0.0750121 0)
(0.56558 0.081515 0)
(0.562432 0.0871886 0)
(0.556831 0.0928692 0)
(0.549229 0.0976995 0)
(0.539926 0.101063 0)
(0.527392 0.102558 0)
(0.510368 0.102485 0)
(0.495146 0.102897 0)
(0.489327 0.105681 0)
(0.487822 0.109366 0)
(0.490721 0.114379 0)
(0.498289 0.120423 0)
(0.506727 0.128906 0)
(0.512093 0.138433 0)
(3 1.94717e-16 0)
(3 6.33382e-17 0)
(3 -2.27867e-16 0)
(3 -3.77672e-17 0)
(3 2.79815e-17 0)
(3 4.23502e-17 0)
(3 -1.97213e-16 0)
(3 -9.75972e-17 0)
(3 -1.18562e-15 0)
(3 -1.31685e-15 0)
(3 -1.01393e-15 0)
(3 -3.42534e-16 0)
(3 -2.70904e-16 0)
(3 -1.36598e-16 0)
(3 -1.00882e-16 0)
(3 4.58807e-16 0)
(3 3.30069e-16 0)
(3 4.43283e-16 0)
(3 3.56038e-16 0)
(3 -1.56406e-16 0)
(3 -7.40939e-16 0)
(3 -9.29877e-16 0)
(3 -8.03782e-16 0)
(3 -9.3306e-16 0)
(3 -1.55586e-15 0)
(3 -9.64138e-16 0)
(3 -2.7919e-16 0)
(3 3.13806e-16 0)
(3 7.30892e-16 0)
(3 1.01298e-15 0)
(3 9.37649e-16 0)
(3 5.06672e-16 0)
(3 5.5353e-16 0)
(3 8.27875e-16 0)
(3 1.12348e-15 0)
(3 7.2533e-16 0)
(3 5.21755e-16 0)
(3 5.33958e-16 0)
(3 8.23048e-16 0)
(3 1.77563e-15 0)
(3 2.46639e-15 0)
(3 2.66185e-15 0)
(3 2.07365e-15 0)
(3 2.02705e-15 0)
(3 1.87611e-15 0)
(3 5.02312e-16 0)
(3 -3.54899e-16 0)
(3 -1.8819e-16 0)
(3 -1.30113e-15 0)
(3 -1.55435e-15 0)
(3 -1.27207e-15 0)
(3 -1.21295e-15 0)
(3 -6.79424e-16 0)
(3 4.07034e-16 0)
(3 7.87873e-16 0)
(3 1.13663e-15 0)
(3 1.49127e-15 0)
(3 3.98305e-16 0)
(3 -5.40127e-16 0)
(3 -1.56715e-15 0)
(3 -1.54412e-15 0)
(3 -1.15092e-15 0)
(3 -7.29184e-16 0)
(3 -5.7985e-16 0)
(3 -5.50778e-16 0)
(3 4.09632e-16 0)
(3 9.25899e-16 0)
(3 1.12797e-15 0)
(3 1.19677e-15 0)
(3 8.41993e-16 0)
(1.52075 0.0628676 0)
(0.665958 0.0645913 0)
(0.60536 0.0748809 0)
(0.603596 0.0627005 0)
(0.588433 0.0584771 0)
(0.571372 0.0576059 0)
(0.559394 0.0593324 0)
(0.553822 0.0618343 0)
(0.552462 0.0644482 0)
(0.555302 0.0689016 0)
(0.562736 0.0751813 0)
(0.569826 0.0820408 0)
(0.570598 0.0881034 0)
(0.56732 0.0935422 0)
(0.561594 0.0989696 0)
(0.553802 0.103513 0)
(0.543932 0.106578 0)
(0.530526 0.107634 0)
(0.51352 0.107214 0)
(0.502053 0.107957 0)
(0.498551 0.110722 0)
(0.498702 0.114089 0)
(0.503046 0.118591 0)
(0.511568 0.124534 0)
(0.520241 0.131412 0)
(0.524081 0.139146 0)
(3 -4.81533e-17 0)
(3 -1.38565e-16 0)
(3 -3.07219e-16 0)
(3 -5.16987e-16 0)
(3 -7.60033e-16 0)
(3 -9.79829e-16 0)
(3 -9.64917e-16 0)
(3 -1.04293e-15 0)
(3 -5.6281e-16 0)
(3 -1.67441e-16 0)
(3 -1.86222e-16 0)
(3 5.6264e-16 0)
(3 1.03346e-15 0)
(3 1.29331e-15 0)
(3 1.10697e-15 0)
(3 1.14626e-15 0)
(3 8.47831e-16 0)
(3 8.64092e-16 0)
(3 7.5542e-16 0)
(3 3.35102e-16 0)
(3 2.64562e-17 0)
(3 1.4396e-16 0)
(3 -3.08791e-16 0)
(3 -8.99525e-16 0)
(3 -1.48149e-15 0)
(3 -1.8016e-15 0)
(3 -1.57155e-15 0)
(3 -9.25887e-16 0)
(3 -8.64332e-16 0)
(3 -3.34059e-16 0)
(3 -4.84479e-16 0)
(3 -8.6887e-16 0)
(3 -8.59852e-16 0)
(3 -2.64148e-16 0)
(3 -5.87291e-16 0)
(3 -1.85488e-15 0)
(3 -8.20832e-16 0)
(3 1.08646e-15 0)
(3 1.91458e-15 0)
(3 2.41049e-15 0)
(3 1.99394e-15 0)
(3 1.82822e-15 0)
(3 1.05428e-15 0)
(3 2.55655e-16 0)
(3 2.09666e-16 0)
(3 -6.16955e-16 0)
(3 -7.13442e-17 0)
(3 2.49597e-16 0)
(3 -4.58175e-16 0)
(3 -1.37222e-15 0)
(3 -1.61551e-15 0)
(3 -1.57321e-15 0)
(3 -1.17626e-15 0)
(3 -9.96643e-16 0)
(3 -1.54882e-16 0)
(3 1.8079e-16 0)
(3 1.86991e-16 0)
(3 1.45989e-16 0)
(3 -1.02289e-15 0)
(3 -8.19103e-16 0)
(3 -4.43786e-16 0)
(3 1.90637e-17 0)
(3 4.78493e-18 0)
(3 -1.66534e-16 0)
(3 7.76645e-16 0)
(3 1.2836e-15 0)
(3 1.25836e-15 0)
(3 6.6615e-16 0)
(3 1.21342e-15 0)
(3 1.72303e-15 0)
(1.58743 0.0673464 0)
(0.67196 0.0718602 0)
(0.603699 0.0800551 0)
(0.601214 0.0655593 0)
(0.584828 0.0613357 0)
(0.568944 0.0607875 0)
(0.560787 0.0633552 0)
(0.557128 0.0662792 0)
(0.557033 0.069507 0)
(0.561365 0.074915 0)
(0.569506 0.0820415 0)
(0.575221 0.0889325 0)
(0.574965 0.094412 0)
(0.571608 0.0994983 0)
(0.566125 0.104288 0)
(0.558187 0.108141 0)
(0.547768 0.110567 0)
(0.533274 0.111055 0)
(0.51708 0.110628 0)
(0.509469 0.112235 0)
(0.507593 0.115134 0)
(0.509025 0.11863 0)
(0.514812 0.123265 0)
(0.52432 0.128901 0)
(0.532342 0.135245 0)
(0.534478 0.141208 0)
(3 -1.77834e-16 0)
(3 -1.61535e-16 0)
(3 2.70854e-17 0)
(3 -1.78593e-16 0)
(3 -5.6847e-16 0)
(3 -9.96631e-16 0)
(3 -1.10339e-15 0)
(3 -1.42841e-15 0)
(3 3.61859e-16 0)
(3 1.22943e-15 0)
(3 7.54319e-16 0)
(3 6.28934e-17 0)
(3 -1.13042e-16 0)
(3 1.38926e-17 0)
(3 1.21716e-16 0)
(3 5.14707e-16 0)
(3 1.09875e-15 0)
(3 1.29709e-15 0)
(3 6.62761e-16 0)
(3 2.57369e-16 0)
(3 4.47543e-16 0)
(3 7.0541e-16 0)
(3 1.58872e-16 0)
(3 -1.5204e-16 0)
(3 -4.39844e-16 0)
(3 -9.55687e-16 0)
(3 -3.82661e-16 0)
(3 4.38109e-16 0)
(3 1.62315e-16 0)
(3 -6.92861e-16 0)
(3 -1.25009e-15 0)
(3 -1.31648e-15 0)
(3 -1.1616e-15 0)
(3 -9.94843e-16 0)
(3 -1.42254e-15 0)
(3 -1.60803e-15 0)
(3 -1.07344e-15 0)
(3 6.26535e-16 0)
(3 1.40993e-15 0)
(3 1.2249e-15 0)
(3 8.92367e-16 0)
(3 8.68287e-16 0)
(3 7.16493e-16 0)
(3 8.77657e-17 0)
(3 -5.36154e-16 0)
(3 -6.30937e-16 0)
(3 -2.99132e-16 0)
(3 -7.95065e-16 0)
(3 -1.17882e-15 0)
(3 -1.17511e-15 0)
(3 -1.52335e-15 0)
(3 -1.78865e-15 0)
(3 -1.5809e-15 0)
(3 -1.39658e-15 0)
(3 -1.59829e-15 0)
(3 -1.10446e-15 0)
(3 -5.88374e-16 0)
(3 5.58609e-16 0)
(3 3.76139e-16 0)
(3 6.61981e-17 0)
(3 -3.99375e-16 0)
(3 -7.19774e-16 0)
(3 -5.02479e-16 0)
(3 -3.82972e-16 0)
(3 6.89129e-16 0)
(3 1.94072e-15 0)
(3 2.08425e-15 0)
(3 1.62117e-15 0)
(3 2.27618e-15 0)
(3 2.6848e-15 0)
(1.66098 0.0711992 0)
(0.678714 0.0791458 0)
(0.601863 0.0841774 0)
(0.597758 0.0678686 0)
(0.58073 0.0636903 0)
(0.567659 0.0640535 0)
(0.562673 0.0674887 0)
(0.560971 0.0704856 0)
(0.562396 0.0744573 0)
(0.56844 0.0809539 0)
(0.576346 0.0888436 0)
(0.579914 0.0954655 0)
(0.578661 0.100456 0)
(0.575345 0.105111 0)
(0.569931 0.109018 0)
(0.561993 0.111849 0)
(0.550912 0.113219 0)
(0.535415 0.112829 0)
(0.521807 0.112727 0)
(0.517441 0.115307 0)
(0.516781 0.118479 0)
(0.519364 0.12267 0)
(0.526554 0.127887 0)
(0.536533 0.133865 0)
(0.543263 0.139648 0)
(0.543948 0.144449 0)
(3 4.09275e-17 0)
(3 2.16977e-16 0)
(3 4.44352e-16 0)
(3 2.72361e-16 0)
(3 2.40188e-16 0)
(3 -8.20496e-17 0)
(3 -9.60379e-16 0)
(3 -1.12102e-15 0)
(3 -2.77437e-16 0)
(3 1.08556e-15 0)
(3 1.17504e-15 0)
(3 7.65079e-16 0)
(3 1.8287e-16 0)
(3 -6.34231e-16 0)
(3 -1.04493e-15 0)
(3 -1.08085e-15 0)
(3 -1.29396e-15 0)
(3 -4.7818e-16 0)
(3 -1.65107e-16 0)
(3 1.99824e-16 0)
(3 1.27352e-15 0)
(3 1.48174e-15 0)
(3 1.08553e-15 0)
(3 8.39994e-16 0)
(3 8.89991e-16 0)
(3 6.78706e-16 0)
(3 1.15209e-15 0)
(3 1.42865e-15 0)
(3 1.31167e-15 0)
(3 -8.87048e-19 0)
(3 -1.04147e-16 0)
(3 8.33077e-17 0)
(3 -7.44422e-16 0)
(3 -1.26087e-15 0)
(3 -1.33826e-15 0)
(3 -1.2072e-15 0)
(3 -1.17123e-15 0)
(3 -2.70465e-16 0)
(3 -4.86437e-17 0)
(3 -4.75187e-17 0)
(3 -3.75099e-17 0)
(3 1.75731e-16 0)
(3 2.35868e-17 0)
(3 -5.63685e-17 0)
(3 -1.92807e-16 0)
(3 -5.49203e-16 0)
(3 -6.72362e-16 0)
(3 -8.22277e-16 0)
(3 -1.11268e-15 0)
(3 -7.77324e-16 0)
(3 -6.36148e-16 0)
(3 -2.13643e-15 0)
(3 -2.44271e-15 0)
(3 -2.34969e-15 0)
(3 -2.81389e-15 0)
(3 -2.2869e-15 0)
(3 -1.52601e-15 0)
(3 -1.16328e-15 0)
(3 -2.93874e-16 0)
(3 5.23242e-20 0)
(3 -3.12707e-16 0)
(3 -1.40777e-15 0)
(3 -1.55964e-15 0)
(3 -1.26309e-15 0)
(3 3.72399e-17 0)
(3 1.05937e-15 0)
(3 1.45535e-15 0)
(3 2.15051e-15 0)
(3 2.81931e-15 0)
(3 2.6855e-15 0)
(1.74122 0.0744258 0)
(0.686377 0.0863163 0)
(0.599469 0.0869571 0)
(0.593439 0.0696344 0)
(0.576839 0.0657941 0)
(0.567849 0.0675642 0)
(0.564906 0.0715574 0)
(0.565169 0.0746454 0)
(0.568713 0.0794352 0)
(0.576396 0.0870705 0)
(0.58281 0.0952963 0)
(0.584002 0.101369 0)
(0.581915 0.106146 0)
(0.578498 0.110272 0)
(0.572903 0.113248 0)
(0.564889 0.114874 0)
(0.552786 0.11482 0)
(0.537139 0.113534 0)
(0.527845 0.114252 0)
(0.525732 0.117033 0)
(0.526272 0.120626 0)
(0.530213 0.12539 0)
(0.538739 0.131515 0)
(0.54853 0.138167 0)
(0.55326 0.143711 0)
(0.553138 0.14789 0)
(3 9.96377e-18 0)
(3 9.56215e-17 0)
(3 1.14988e-16 0)
(3 1.67264e-16 0)
(3 -1.73214e-16 0)
(3 -3.00544e-16 0)
(3 -1.34142e-16 0)
(3 1.37951e-16 0)
(3 1.22715e-17 0)
(3 3.12601e-16 0)
(3 4.69659e-16 0)
(3 5.83284e-16 0)
(3 8.32867e-16 0)
(3 5.58506e-16 0)
(3 1.08183e-16 0)
(3 -2.83986e-16 0)
(3 -5.67188e-16 0)
(3 -5.06159e-16 0)
(3 2.58575e-16 0)
(3 5.15796e-16 0)
(3 3.28862e-16 0)
(3 -1.63789e-16 0)
(3 1.71351e-16 0)
(3 8.42233e-16 0)
(3 1.1005e-15 0)
(3 9.4263e-16 0)
(3 5.55951e-16 0)
(3 7.26775e-17 0)
(3 -7.2224e-17 0)
(3 2.97705e-16 0)
(3 2.21487e-16 0)
(3 6.27059e-16 0)
(3 1.9186e-16 0)
(3 -1.43326e-16 0)
(3 1.83179e-16 0)
(3 5.293e-16 0)
(3 2.90337e-16 0)
(3 -1.95287e-16 0)
(3 -8.03965e-16 0)
(3 -1.49813e-15 0)
(3 -1.0054e-15 0)
(3 -3.86303e-16 0)
(3 -2.61745e-16 0)
(3 -7.3483e-16 0)
(3 -1.04372e-15 0)
(3 -1.23507e-15 0)
(3 -1.34921e-15 0)
(3 -1.3537e-15 0)
(3 -1.32865e-15 0)
(3 -1.50168e-15 0)
(3 -1.93475e-15 0)
(3 -3.02992e-15 0)
(3 -2.91291e-15 0)
(3 -2.56678e-15 0)
(3 -2.42832e-15 0)
(3 -2.48743e-15 0)
(3 -2.45711e-15 0)
(3 -2.43984e-15 0)
(3 -2.06884e-15 0)
(3 -1.15172e-15 0)
(3 -6.08223e-16 0)
(3 -7.91306e-16 0)
(3 -5.67906e-16 0)
(3 7.90543e-16 0)
(3 2.92639e-17 0)
(3 5.95898e-16 0)
(3 9.74743e-16 0)
(3 1.33984e-15 0)
(3 1.98346e-15 0)
(3 1.40919e-15 0)
(1.82827 0.0769731 0)
(0.694701 0.0931344 0)
(0.596309 0.0883142 0)
(0.588691 0.0708429 0)
(0.574254 0.0679998 0)
(0.569016 0.0712083 0)
(0.567542 0.0756687 0)
(0.569803 0.0790031 0)
(0.576059 0.084734 0)
(0.584553 0.093225 0)
(0.588462 0.101028 0)
(0.587699 0.106613 0)
(0.58498 0.111223 0)
(0.581075 0.114779 0)
(0.57524 0.116886 0)
(0.56658 0.117275 0)
(0.553276 0.115803 0)
(0.539377 0.11417 0)
(0.534416 0.115628 0)
(0.533925 0.118092 0)
(0.535878 0.121907 0)
(0.541603 0.127042 0)
(0.551409 0.13386 0)
(0.560149 0.140948 0)
(0.562817 0.146543 0)
(0.562174 0.1506 0)
(3 -1.47777e-16 0)
(3 -4.41129e-16 0)
(3 -3.37652e-16 0)
(3 9.55092e-17 0)
(3 1.50694e-16 0)
(3 1.86045e-16 0)
(3 2.51019e-16 0)
(3 2.57996e-16 0)
(3 -8.02563e-18 0)
(3 -9.30773e-17 0)
(3 1.88819e-16 0)
(3 1.14577e-16 0)
(3 6.52298e-17 0)
(3 2.3718e-16 0)
(3 4.20737e-16 0)
(3 1.27821e-16 0)
(3 1.91832e-16 0)
(3 -1.2629e-16 0)
(3 7.05799e-17 0)
(3 4.56931e-16 0)
(3 2.80284e-16 0)
(3 -3.57953e-16 0)
(3 1.68195e-16 0)
(3 1.91615e-17 0)
(3 -5.44669e-17 0)
(3 7.29406e-17 0)
(3 -2.80819e-16 0)
(3 -6.61685e-16 0)
(3 -6.84819e-16 0)
(3 -3.43073e-16 0)
(3 8.19175e-17 0)
(3 -4.31034e-16 0)
(3 -4.15458e-16 0)
(3 -1.91829e-16 0)
(3 -1.17704e-16 0)
(3 -9.53767e-17 0)
(3 -5.75237e-18 0)
(3 9.00464e-18 0)
(3 -3.46869e-16 0)
(3 -5.03355e-16 0)
(3 -4.91796e-17 0)
(3 3.85713e-17 0)
(3 -3.18798e-16 0)
(3 -6.46905e-16 0)
(3 -8.62977e-16 0)
(3 -1.12478e-15 0)
(3 -1.57166e-15 0)
(3 -1.57397e-15 0)
(3 -1.27312e-15 0)
(3 -1.43251e-15 0)
(3 -1.96935e-15 0)
(3 -2.4969e-15 0)
(3 -2.80011e-15 0)
(3 -2.81109e-15 0)
(3 -1.15951e-15 0)
(3 -1.04185e-15 0)
(3 -8.85762e-16 0)
(3 -1.3178e-16 0)
(3 -2.08252e-16 0)
(3 -1.95828e-16 0)
(3 -6.90748e-16 0)
(3 -8.94183e-16 0)
(3 -1.01242e-15 0)
(3 1.94549e-16 0)