/*--------------------------------*- C++ -*----------------------------------*\
  =========                 |
  \\      /  F ield         | OpenFOAM: The Open Source CFD Toolbox
   \\    /   O peration     | Website:  https://openfoam.org
    \\  /    A nd           | Version:  7
     \\/     M anipulation  |
\*---------------------------------------------------------------------------*/
FoamFile
{
    version     2.0;
    format      ascii;
    class       volScalarField;
    location    "2.9";
    object      p;
}
// * * * * * * * * * * * * * * * * * * * * * * * * * * * * * * * * * * * * * //

dimensions      [1 -1 -2 0 0 0 0];

internalField   nonuniform List<scalar> 
4608
(
1
1
1
1
1
1
1
1
1
1
1
1
1
1
1
1
1
1
1
1
1
1
1
1
1
1
1
1
1
1
1
1
1
1
1
1
1
1
1
1
1
1
1
1
1
1
1
1
1
1
1
1
1
1
1
1
1
1
1
1
1
1
1
1
1
1
1
1
1
1
1
1
1
1
1
1
1
1
1
1
1
1
1
1
1
1
1
1
1
1
1
1
1
1
1
1
1
1
1
1
1
1
1
1
1
1
1
1
1
1
1
1
1
1
1
1
1
1
1
1
1
1
1
1
1
1
1
1
1
1
1
1
1
1
1
1
1
1
1
1
1
1
1
1
1
1
1
1
1
1
1
1
1
1
1
1
1
1
1
1
1
1
1
1
1
1
1
1
1
1
1
1
1
1
1
1
1
1
1
1
1
1
1
1
1
1
1
1
1
1
1
1
1
1
1
1
1
1
1
1
1
1
1
1
1
1
1
1
1
1
1
1
1
1
1
1
1
1
1
1
1
1
1
1
1
1
1
1
1
1
1
1
1
1
1
1
1
1
1
1
1
1
1
1
1
1
1
1
1
1
1
1
1
1
1
1
1
1
1
1
1
1
1
1
1
1
1
1
1
1
1
1
1
1
1
1
1
1
1
1
1
1
1
1
1
1
1
1
1
1
1
1
1
1
1
1
1
1
1
1
1
1
1
1
1
1
1
1
1
1
1
1
1
1
1
1
1
1
1
1
1
1
1
1
1
1
1
1
1
1
1
1
1
1
1
1
1
1
1
1
1
1
1
1
1
1
1
1
1
1
1
1
1
1
1
1
1
1
1
1
1
1
1
1
1
1
1
1
1
1
1
1
1
1
1
1
1
1
1
1
1
1
1
1
1
1
1
1
1
1
1
1
1
1
1
1
1
1
1
1
1
1
1
1
1
1
1
1
1
1
1
1
1
1
1
1
1
1
1
1
1
1
1
1
1
1
1
1
1
1
1
1
1
1
1
1
1
1
1
1
1
1
1
1
1
1
1
1
1
1
1
1
1
1
1
1
1
1
1
1
1
1
1
1
1
1
1
1
1
1
1
1
1
1
1
1
1
1
1
1
1
1
1
1
1
1
1
1
1
1
1
1
1
1
1
1
1
1
1
1
1
1
1
1
1
1
1
1
1
1
1
1
1
1
1
1
1
1
1
1
1
1
1
1
1
1
1
1
1
1
1
1
1
1
1
1
1
1
1
1
1
1
1
1
1
1
1
1
1
1
1
1
1
1
1
1
1
1
1
1
1
1
1
1
1
1
1
1
1
1
1
1
1
1
1
1
1
1
1
1
1
1
1
1
1
1
1
1
1
1
1
1
1
1
1
1
1
1
1
1
1
1
1
1
1
1
1
1
1
1
1
1
1
1
1
1
1
1
1
1
1
1
1
1
1
1
1
1
1
1
1
1
1
1
1
1
1
1
1
1
1
1
1
1
1
1
1
1
1
1
1
1
1
1
1
1
1
1
1
1
1
1
1
1
1
1
1
1
1
1
1
1
1
1
1
1
1
1
1
1
1
1
1
1
1
1
1
1
1
1
1
1
1
1
1
1
1
1
1
1
1
1
1
1
1
1
1
1
1
1
1
1
1
1
1
1
1
1
1
1
1
1
1
1
1
1
1
1
1
1
1
1
1
1
1
1
1
1
1
1
1
1
1
1
1
1
1
1
1
1
1
1
1
1
1
1
1
1
1
1
1
1
1
1
1
1
1
1
1.29074
1.76434
2.34062
2.96018
3.65027
4.27807
4.82797
5.32949
5.36183
5.14873
4.71941
4.22131
3.79153
3.67227
3.57778
3.58193
3.60989
3.64265
3.67951
3.71761
3.75321
3.76303
3.76225
3.76463
1.00319
1.01733
1.08367
1.22063
1.46829
1.86078
2.3652
3.01006
3.54718
3.82242
4.045
4.06826
3.94398
3.85339
3.78535
3.72934
3.70166
3.67485
3.67639
3.69828
3.73071
3.7517
3.75622
3.76071
1
0.999949
1.00015
1.00034
1.00343
1.02478
1.10667
1.36739
1.97967
3.00465
3.84009
4.32367
4.36491
4.26589
4.09751
3.88368
3.74948
3.67066
3.65571
3.6717
3.69719
3.72679
3.74786
3.76039
1
0.999998
0.999997
0.999998
0.999986
1.00004
0.999911
1.00186
1.03412
1.29261
2.02931
3.15002
4.04508
4.06519
4.02219
3.9986
3.91399
3.78349
3.7095
3.69555
3.69625
3.70859
3.73424
3.7696
1
1
1
1
0.999999
0.999999
0.999989
0.999989
0.999904
1.00113
1.04584
1.33646
2.26774
3.2377
3.97195
4.11984
4.08774
3.9815
3.87322
3.78044
3.72119
3.70866
3.7182
3.74851
1
1
1
1
1
1
1
0.999999
0.999992
0.999992
0.999915
1.00254
1.07944
1.51986
2.53062
3.41336
3.87693
3.94502
3.89028
3.81427
3.77072
3.73124
3.70188
3.70991
1
1
1
1
1
1
1
1
1
0.999999
0.999993
0.999981
1.00005
1.01013
1.15034
1.79956
2.95668
3.68113
3.80268
3.8082
3.80466
3.76984
3.71596
3.70074
1
1
1
1
1
1
1
1
1
1
1
0.999997
0.999997
0.999969
1.00087
1.04037
1.34889
2.26877
3.28676
3.80895
3.86509
3.83487
3.76632
3.72602
1
1
1
1
1
1
1
1
1
1
1
1
1
0.999995
0.999993
1.00002
1.00657
1.15023
1.74851
2.78361
3.52979
3.81961
3.81029
3.7538
1
1
1
1
1
1
1
1
1
1
1
1
1
1
0.999999
0.999999
0.999982
1.0018
1.03978
1.4196
2.33231
3.46265
3.61711
3.67627
1
1
1
1
1
1
1
1
1
1
1
1
1
1
1
1
0.999997
0.99999
1.00012
1.01771
1.19293
2.02386
3.01615
3.62451
1
1
1
1
1
1
1
1
1
1
1
1
1
1
1
1
1
0.999998
0.999998
1.00003
1.00457
1.11169
1.7407
2.76984
1
1
1
1
1
1
1
1
1
1
1
1
1
1
1
1
1
1
1
0.999999
1
1.00202
1.07107
1.48639
1
1
1
1
1
1
1
1
1
1
1
1
1
1
1
1
1
1
1
1
1
0.999999
1.00112
1.02987
1
1
1
1
1
1
1
1
1
1
1
1
1
1
1
1
1
1
1
1
1
1
0.999996
1.00006
1
1
1
1
1
1
1
1
1
1
1
1
1
1
1
1
1
1
1
1
1
1
0.999998
0.999994
1
1
1
1
1
1
1
1
1
1
1
1
1
1
1
1
1
1
1
1
1
1
0.999999
0.999986
1
1
1
1
1
1
1
1
1
1
1
1
1
1
1
1
1
1
1
1
1
0.999999
1.00001
0.999989
1
1
1
1
1
1
1
1
1
1
1
1
1
1
1
1
1
1
1
1
1
0.999998
1.00126
1.02666
1
1
1
1
1
1
1
1
1
1
1
1
1
1
1
1
1
1
0.999999
0.999999
1
1.00237
1.06717
1.51802
1
1
1
1
1
1
1
1
1
1
1
1
1
1
1
1
1
0.999998
0.999998
1.00004
1.00424
1.11517
1.70826
2.94353
1
1
1
1
1
1
1
1
1
1
1
1
1
1
1
1
0.999996
0.999989
1.00011
1.0184
1.19419
1.99741
3.02737
3.68427
1
1
1
1
1
1
1
1
1
1
1
1
1
1
0.999999
0.999999
0.999981
1.00183
1.03938
1.42712
2.32906
3.4407
3.64155
3.69708
1
1
1
1
1
1
1
1
1
1
1
1
1
0.999995
0.999993
1.00002
1.00654
1.15005
1.74837
2.7953
3.50774
3.82088
3.82062
3.76616
1
1
1
1
1
1
1
1
1
1
1
0.999997
0.999997
0.999969
1.00086
1.04055
1.34901
2.26448
3.29243
3.81081
3.86155
3.83191
3.77245
3.72939
1
1
1
1
1
1
1
1
1
0.999999
0.999993
0.999981
1.00005
1.01014
1.15018
1.8009
2.95545
3.67884
3.80544
3.80912
3.80427
3.76897
3.71668
3.70057
1
1
1
1
1
1
1
0.999999
0.999992
0.999992
0.999915
1.00254
1.07944
1.51972
2.531
3.41423
3.87547
3.94441
3.8916
3.81493
3.76906
3.72929
3.70211
3.70993
1
1
1
1
0.999999
0.999999
0.999989
0.999989
0.999904
1.00113
1.04583
1.33648
2.26776
3.23719
3.97258
4.11976
4.08773
3.98098
3.87351
3.78025
3.72064
3.70862
3.7183
3.74879
1
0.999998
0.999997
0.999998
0.999986
1.00004
0.999911
1.00186
1.03413
1.29262
2.02922
3.15023
4.04465
4.06515
4.02241
3.99901
3.9141
3.78272
3.71002
3.69537
3.69606
3.70861
3.73443
3.76955
1
0.999949
1.00015
1.00034
1.00343
1.02479
1.10667
1.36736
1.97972
3.00453
3.84013
4.32372
4.36496
4.26591
4.09759
3.88395
3.74921
3.67032
3.65622
3.67186
3.6969
3.72654
3.74799
3.7604
1.00319
1.01733
1.08366
1.22065
1.46824
1.86083
2.36518
3.01005
3.54727
3.82234
4.04496
4.06833
3.94411
3.85328
3.78554
3.72932
3.70152
3.67489
3.67656
3.69837
3.7306
3.75169
3.75631
3.76076
1.29074
1.76433
2.34066
2.9601
3.65032
4.27817
4.82776
5.32951
5.36188
5.14872
4.7194
4.22136
3.79159
3.67214
3.57777
3.58187
3.60975
3.6426
3.67964
3.71768
3.75322
3.76312
3.76241
3.7647
2.65997
1.71557
1.08832
0.826002
0.768388
0.70424
0.663401
0.684614
0.754573
0.82637
0.882767
0.968237
1.03455
1.03578
1.01574
1.00943
1.0255
1.05045
1.07683
1.08522
1.08327
1.06891
1.04346
1.09642
1.54061
2.79136
4.5821
6.83839
8.85645
9.28692
8.62268
7.61171
6.91676
6.58986
6.39125
6.14408
5.84352
5.57263
5.35956
5.18152
5.02328
4.87387
4.72033
4.56136
4.39985
4.22543
4.02476
3.82484
3.67023
3.55823
3.47439
3.4022
3.33128
3.25312
3.16096
3.05001
2.93764
2.8402
2.75478
2.67501
2.59378
2.51387
2.44067
2.37522
2.31738
2.26148
2.21682
2.17014
2.11129
2.05307
1.99834
2.01691
2.15835
2.52162
3.23064
4.00005
4.6756
5.29288
5.55652
5.4687
5.24957
4.91569
4.6743
4.51592
4.44034
4.40093
4.35858
4.30821
4.2632
4.20968
4.12232
3.97617
3.81304
3.74476
3.71594
3.66059
3.35562
2.7798
2.20705
1.69177
1.48692
1.33804
1.12368
1.01369
0.985326
0.950407
0.911825
0.919911
0.942666
0.945552
0.940384
0.948074
0.974077
1.00398
1.02974
1.04362
1.04139
1.04277
1.10696
1.58959
2.61916
3.05029
3.55728
4.31003
5.55198
6.6802
7.46854
7.46723
7.13615
6.78054
6.47232
6.16963
5.8592
5.61436
5.4314
5.25535
5.08627
4.93584
4.78581
4.62789
4.4583
4.26963
4.06103
3.86512
3.73644
3.64431
3.5547
3.46809
3.3877
3.30718
3.21567
3.10617
2.99347
2.89596
2.81404
2.73899
2.66216
2.58097
2.49994
2.42613
2.36073
2.30088
2.25309
2.20873
2.15647
2.13058
2.17243
2.363
2.68551
3.01682
3.28918
3.63905
4.00212
4.46484
4.83302
4.91802
4.95276
4.8768
4.73033
4.55928
4.48102
4.43712
4.38534
4.33088
4.28219
4.22821
4.1517
4.01697
3.85369
3.77864
3.74826
3.69256
3.65257
3.32138
2.88158
2.37868
1.91965
1.68099
1.45453
1.22042
1.11948
1.04259
0.94693
0.927763
0.945667
0.940834
0.926744
0.926587
0.938891
0.959576
0.987167
1.00614
1.02762
1.16359
1.7254
2.73625
3.3111
3.31692
3.29526
3.31076
3.52587
4.50175
6.09301
7.17521
7.28977
7.04617
6.50659
6.10345
5.83841
5.62537
5.41593
5.18824
4.97283
4.79578
4.64857
4.50426
4.34998
4.17794
4.00386
3.86749
3.74874
3.62739
3.50857
3.39699
3.29466
3.20025
3.1093
3.01401
2.9248
2.84901
2.77857
2.70715
2.63326
2.54922
2.4573
2.36785
2.29272
2.2385
2.20143
2.18128
2.19704
2.30164
2.57007
2.96956
3.27525
3.4104
3.36862
3.33994
3.40928
3.65386
4.0483
4.45871
4.71966
4.84148
4.77584
4.60687
4.50497
4.44527
4.40873
4.35481
4.29581
4.22751
4.13397
3.98526
3.81706
3.74314
3.71446
3.66273
3.74361
3.60697
3.31501
2.93378
2.43343
2.0867
1.88144
1.59528
1.38929
1.30347
1.17083
1.04378
1.03457
1.02379
0.987885
0.951101
0.944838
0.941141
0.942652
0.954266
1.12841
1.79026
2.81569
3.32432
3.32002
3.27232
3.16956
3.0419
2.94958
3.04215
3.66431
5.17291
6.50837
6.55441
6.45191
6.17727
5.93008
5.68281
5.42139
5.17684
4.96354
4.77122
4.59407
4.43277
4.29138
4.16779
4.04798
3.92506
3.78334
3.64731
3.5195
3.39767
3.27924
3.16409
3.05648
2.96672
2.89194
2.83146
2.77369
2.70597
2.63387
2.55056
2.4555
2.36036
2.27984
2.24997
2.22616
2.26181
2.47513
2.86416
3.28213
3.54718
3.57921
3.55377
3.42518
3.26957
3.22302
3.24794
3.37874
3.67103
4.10856
4.50801
4.60678
4.54965
4.53081
4.5054
4.47616
4.40688
4.32688
4.24609
4.1494
3.99124
3.81313
3.73299
3.70914
3.66474
3.76154
3.72667
3.58101
3.31634
2.94849
2.51443
2.23039
2.0011
1.74711
1.54877
1.38273
1.21227
1.12466
1.10274
1.07226
1.00122
0.956354
0.945376
0.964322
1.15764
1.91752
2.7959
3.30401
3.31707
3.24694
3.11383
2.99358
2.86926
2.80912
2.74184
2.7615
3.07779
4.20768
5.3997
6.14689
6.10057
5.89206
5.60601
5.35229
5.15342
4.96114
4.76415
4.57076
4.37617
4.19963
4.05976
3.9415
3.85784
3.7952
3.70369
3.58004
3.42301
3.27154
3.15982
3.0451
2.91868
2.82376
2.7729
2.74239
2.71878
2.67185
2.6
2.50525
2.40889
2.32818
2.30237
2.38461
2.68227
3.12393
3.52153
3.71278
3.71591
3.67094
3.58258
3.44319
3.27886
3.18632
3.16628
3.16657
3.2207
3.44413
3.83091
4.23886
4.44152
4.48994
4.47624
4.41926
4.34449
4.26068
4.18654
4.11109
3.9975
3.86811
3.75433
3.67848
3.62362
3.73559
3.73546
3.70698
3.55782
3.29582
2.97936
2.62385
2.29741
2.07954
1.89238
1.71788
1.48286
1.29081
1.25801
1.24481
1.17945
1.08729
1.10245
1.37068
2.19115
3.05183
3.37062
3.34191
3.23566
3.10294
2.98758
2.88271
2.77987
2.70749
2.6425
2.56159
2.49585
2.61584
3.22058
4.43222
5.34619
5.54489
5.51485
5.34174
5.16911
4.97473
4.75302
4.52817
4.31189
4.1297
4.0169
3.92912
3.83537
3.72525
3.61748
3.51433
3.4256
3.31229
3.16247
3.00872
2.87876
2.80151
2.756
2.70228
2.64051
2.58658
2.53136
2.49518
2.43822
2.45458
2.6177
2.99552
3.4152
3.70454
3.87853
3.88047
3.83025
3.75232
3.63085
3.45028
3.26522
3.18658
3.15194
3.125
3.12421
3.15249
3.27474
3.54741
3.8947
4.16239
4.25154
4.2797
4.28649
4.24997
4.17561
4.08414
3.99033
3.90137
3.78817
3.68461
3.6238
3.70869
3.7176
3.71163
3.68041
3.52903
3.26814
2.99458
2.71252
2.35055
2.1193
2.00907
1.85233
1.6392
1.40381
1.3491
1.31347
1.36057
1.71509
2.69199
3.55026
3.64742
3.52081
3.32232
3.1598
3.0479
2.94998
2.84457
2.7493
2.67389
2.59317
2.48934
2.40751
2.29083
2.2907
2.54557
3.44334
4.49697
5.1477
5.2951
5.21461
5.0233
4.77531
4.51117
4.2806
4.09491
3.96916
3.87942
3.77935
3.67907
3.59223
3.51024
3.40555
3.26028
3.08954
2.95597
2.88586
2.82504
2.75507
2.67137
2.60347
2.55898
2.54237
2.54614
2.64623
2.96732
3.42343
3.72964
3.86501
3.95739
3.94318
3.88284
3.81425
3.72836
3.61185
3.4328
3.27107
3.21202
3.17283
3.13499
3.10649
3.0909
3.09025
3.13284
3.2583
3.48743
3.8009
4.02841
4.1838
4.2078
4.15586
4.06738
3.98963
3.91438
3.83375
3.74353
3.6261
3.72048
3.72138
3.71646
3.69687
3.64211
3.50039
3.24644
3.00707
2.74791
2.45625
2.15293
2.0596
1.93307
1.73429
1.57624
1.68704
2.26584
3.35523
4.16403
4.14787
3.94239
3.65776
3.40853
3.23948
3.10792
2.98577
2.85893
2.76701
2.67696
2.57202
2.46425
2.3734
2.26559
2.17359
2.08762
2.17573
2.67999
3.66604
4.59449
4.90808
4.90213
4.77159
4.53874
4.30508
4.1004
3.93244
3.8179
3.72699
3.64408
3.56046
3.47289
3.35969
3.21501
3.05904
2.93801
2.85305
2.77984
2.71091
2.64992
2.61806
2.60271
2.66334
2.91636
3.35007
3.84322
4.03399
4.09666
4.10302
4.05476
3.97645
3.89595
3.815
3.7231
3.60399
3.43261
3.29975
3.24414
3.19774
3.14627
3.10074
3.06921
3.04217
3.03204
3.00522
3.02236
3.15721
3.46504
3.76833
3.9975
4.08334
4.06047
4.02064
3.98002
3.91045
3.80221
3.63045
3.74375
3.75127
3.75046
3.73736
3.70978
3.63453
3.48894
3.24311
3.01435
2.76092
2.49835
2.26119
2.09024
2.01672
2.25974
3.18221
4.3427
4.79986
4.69309
4.4031
4.0924
3.8195
3.59037
3.40735
3.24725
3.09132
2.92927
2.7898
2.66827
2.56068
2.46892
2.37287
2.27107
2.15271
2.0637
1.98085
1.98461
2.21795
2.96527
3.91797
4.54136
4.58425
4.52924
4.34076
4.11509
3.90737
3.7561
3.67343
3.60493
3.51944
3.42226
3.30256
3.16694
3.02702
2.91216
2.82955
2.76422
2.7127
2.66864
2.68478
2.84022
3.26819
3.8296
4.22201
4.25664
4.19958
4.16426
4.10204
4.03222
3.96317
3.88975
3.8022
3.7037
3.58459
3.44752
3.3451
3.27889
3.2233
3.16986
3.12017
3.07344
3.02338
2.97412
2.93721
2.88266
2.8614
2.95175
3.21294
3.56989
3.87177
4.02607
4.03641
4.01033
3.94403
3.82875
3.63083
3.69478
3.7245
3.74262
3.73538
3.72148
3.68451
3.60476
3.45373
3.24758
2.98453
2.77092
2.49426
2.52867
3.04056
4.26044
5.45327
5.59894
5.38723
5.01919
4.66014
4.33351
4.03957
3.77972
3.55704
3.36827
3.20048
3.0444
2.89787
2.75181
2.60152
2.46766
2.34036
2.23638
2.15054
2.07889
1.99043
1.92223
1.86316
1.93217
2.34288
3.20853
3.94773
4.23073
4.2153
4.0828
3.9145
3.75246
3.63246
3.53377
3.43259
3.33787
3.23549
3.12435
3.00942
2.90308
2.81542
2.76719
2.7372
2.80441
3.14951
3.73491
4.30274
4.59579
4.59394
4.47639
4.2562
4.13045
4.07005
4.01207
3.95114
3.8834
3.79731
3.69399
3.57937
3.47466
3.38989
3.32014
3.25724
3.19624
3.1366
3.07927
3.01872
2.95188
2.89138
2.83648
2.80355
2.79011
2.84389
3.05141
3.40652
3.77762
3.90813
3.90315
3.87965
3.81282
3.63004
3.78613
3.77055
3.74711
3.7339
3.72503
3.69718
3.65532
3.58104
3.41372
3.21995
3.01297
3.21407
4.25802
5.72815
6.42699
6.3557
6.00218
5.60281
5.24566
4.9177
4.60059
4.28803
3.99069
3.72269
3.48547
3.27202
3.09264
2.95054
2.82256
2.68132
2.53639
2.39645
2.26793
2.1467
2.04988
1.9809
1.90585
1.83673
1.76485
1.76391
1.94762
2.56045
3.36126
3.90162
3.98232
3.93809
3.77763
3.60289
3.46398
3.34412
3.24885
3.15869
3.07288
2.98287
2.91011
2.82905
2.82739
3.00061
3.49263
4.22776
4.70105
4.75012
4.71836
4.61146
4.43457
4.28755
4.17018
4.08662
4.01267
3.93844
3.87131
3.79157
3.68722
3.57899
3.49304
3.42359
3.36046
3.29596
3.2272
3.1584
3.09377
3.02719
2.95206
2.87187
2.80366
2.77376
2.75684
2.73731
2.76237
2.9173
3.23488
3.56253
3.71179
3.77417
3.758
3.61495
3.54139
3.66189
3.74183
3.76574
3.76573
3.73631
3.68115
3.62793
3.52199
3.54558
4.18316
5.7876
7.26807
7.64506
7.40338
6.8204
6.27344
5.82507
5.45521
5.11826
4.79261
4.47454
4.17003
3.88848
3.63294
3.40293
3.20698
3.0331
2.86025
2.69439
2.55602
2.44247
2.32395
2.20545
2.10048
2.0052
1.90504
1.81108
1.72688
1.68523
1.65056
1.71756
2.09366
2.81443
3.49867
3.71039
3.681
3.56082
3.41369
3.29616
3.19918
3.12221
3.04875
2.99555
2.9459
2.99407
3.32736
3.94079
4.55079
5.00285
5.04301
4.95665
4.76871
4.56643
4.40839
4.29677
4.20174
4.12068
4.03413
3.93927
3.85504
3.77453
3.68416
3.59212
3.51083
3.44265
3.38303
3.32256
3.25445
3.17866
3.10277
3.02809
2.95115
2.87787
2.81891
2.76805
2.73129
2.70464
2.68416
2.69722
2.78415
2.98978
3.2489
3.48583
3.59544
3.55741
2.49242
3.50242
3.72393
3.70811
3.6929
3.67823
3.66555
3.68782
3.97264
5.30742
7.56057
8.538
8.39012
8.05132
7.55673
7.06643
6.57463
6.09393
5.66067
5.28617
4.95
4.62551
4.30645
4.00257
3.72737
3.48805
3.282
3.1018
2.94327
2.795
2.64003
2.4795
2.33089
2.21652
2.13531
2.04899
1.94111
1.83749
1.74769
1.66996
1.62024
1.58199
1.59681
1.7771
2.29723
3.00125
3.38847
3.41558
3.3558
3.27687
3.15593
3.09343
3.0648
3.13965
3.36433
3.87459
4.55366
4.92614
5.05052
5.06707
5.01013
4.91802
4.7756
4.59542
4.44478
4.32487
4.22852
4.1468
4.05353
3.94821
3.84486
3.75057
3.66887
3.59647
3.52782
3.46304
3.40447
3.34582
3.27634
3.1932
3.10407
3.0201
2.94839
2.88884
2.8419
2.79181
2.74506
2.70054
2.65676
2.64077
2.62528
2.65326
2.75511
2.97362
3.23668
3.42524
1.34367
2.39714
3.23887
3.56183
3.64365
3.6791
3.91192
4.75655
6.59812
8.80913
9.90664
9.78092
9.02965
8.25678
7.7219
7.26035
6.78627
6.29069
5.80413
5.37806
5.03442
4.73256
4.42915
4.12556
3.8335
3.5679
3.34807
3.14585
2.94837
2.78437
2.65927
2.54458
2.42616
2.29186
2.13655
2.03496
1.97655
1.8811
1.76983
1.68189
1.63481
1.59951
1.54364
1.50215
1.55937
1.86869
2.50703
2.97935
3.17029
3.15767
3.11363
3.14033
3.42555
3.97132
4.57428
5.1836
5.50831
5.46153
5.29224
5.05627
4.90688
4.81106
4.71864
4.59877
4.47337
4.35534
4.24484
4.1485
4.04727
3.9369
3.83812
3.75529
3.68531
3.61932
3.5515
3.47746
3.3991
3.32843
3.26036
3.18987
3.11396
3.03844
2.96805
2.90218
2.84519
2.7997
2.75652
2.71085
2.66334
2.61913
2.57875
2.54642
2.53966
2.59245
2.75346
3.12004
1.02228
1.27367
2.07341
3.05085
3.63993
4.06829
5.78043
7.79383
9.47837
10.0738
10.0088
9.82855
9.36701
8.66266
7.99996
7.41166
6.89164
6.41635
5.95111
5.49132
5.08523
4.74504
4.45531
4.18598
3.93441
3.6873
3.45568
3.23026
3.01228
2.83533
2.67459
2.52642
2.41091
2.30756
2.18906
2.03841
1.91074
1.82929
1.75451
1.70024
1.64765
1.58899
1.50896
1.42834
1.36565
1.37866
1.55375
2.02287
2.63475
3.05765
3.23282
3.73102
4.63502
5.19352
5.48158
5.64169
5.60714
5.52576
5.32938
5.09037
4.8993
4.76381
4.67238
4.58599
4.49894
4.40744
4.30282
4.18137
4.05382
3.93662
3.84491
3.77582
3.71606
3.65547
3.58994
3.5167
3.43537
3.34498
3.24782
3.16106
3.0963
3.04153
2.98659
2.937
2.89147
2.84597
2.80421
2.76205
2.71497
2.66022
2.5927
2.50735
2.43443
2.42579
2.45745
2.72658
1.00033
1.0171
1.17444
1.94763
3.93868
5.65663
8.352
9.86898
10.918
10.7066
10.1052
9.7001
9.42846
8.89042
8.20352
7.52544
6.91641
6.39077
6.00961
5.69294
5.31514
4.92864
4.57899
4.25096
3.95224
3.67625
3.40364
3.23305
3.12545
2.97707
2.80096
2.62845
2.47934
2.34386
2.20417
2.03537
1.88157
1.83795
1.82362
1.7828
1.71284
1.62659
1.51793
1.41203
1.35296
1.32911
1.33732
1.42723
1.8422
2.85411
3.80369
4.85339
5.64987
6.01637
6.06215
5.98281
5.70249
5.42812
5.27869
5.09333
4.93036
4.7843
4.65239
4.57295
4.52574
4.46704
4.32409
4.11287
3.9582
3.87211
3.81701
3.76565
3.7168
3.66894
3.62002
3.54924
3.4226
3.29442
3.22769
3.17286
3.11481
3.06237
3.01339
2.95597
2.88423
2.81649
2.76382
2.72529
2.68454
2.63266
2.56456
2.47994
2.4134
2.39161
2.39711
2.4989
1.00064
1.01165
1.18135
1.86427
3.49039
6.30647
8.28855
9.71945
10.9707
10.5475
9.79994
9.54226
9.31421
8.93072
8.35598
7.69601
7.05555
6.51574
6.04088
5.57802
5.16374
4.77498
4.48053
4.28167
4.0542
3.78243
3.50343
3.24815
3.03004
2.86769
2.72347
2.56779
2.4375
2.36414
2.26895
2.12771
1.97086
1.8573
1.77721
1.71933
1.6541
1.57642
1.5079
1.45256
1.3919
1.33898
1.34516
1.45705
1.89989
2.7213
3.99349
5.07732
5.49751
5.98098
6.08516
5.90847
5.59211
5.34565
5.23045
5.09633
4.94834
4.8009
4.68955
4.62165
4.55017
4.44032
4.29254
4.10457
3.92384
3.85274
3.82525
3.8097
3.77404
3.73132
3.68498
3.6089
3.45803
3.27988
3.19255
3.14186
3.09814
3.05636
3.01174
2.95934
2.89604
2.8274
2.76257
2.71726
2.68121
2.62973
2.5439
2.46841
2.42545
2.39894
2.40677
2.51207
1.03251
1.26047
2.00977
2.96087
3.3289
4.53492
5.8547
7.85597
9.5121
9.86737
9.78245
9.61707
9.23529
8.63913
8.06275
7.52653
7.01187
6.52067
6.01899
5.53378
5.12247
4.78469
4.46556
4.14387
3.86083
3.6222
3.40783
3.19178
2.98196
2.81888
2.707
2.60331
2.46979
2.30659
2.15459
2.04117
1.95467
1.85759
1.76254
1.69439
1.63952
1.5756
1.48306
1.41628
1.39259
1.40807
1.58244
2.0757
2.71973
2.91218
3.3442
3.98333
4.4261
5.13687
5.47112
5.57705
5.56343
5.46888
5.32403
5.15798
4.99708
4.86342
4.76614
4.66266
4.53803
4.39315
4.24444
4.09226
3.95872
3.87569
3.8102
3.75698
3.71209
3.67117
3.62959
3.56841
3.44251
3.26319
3.17964
3.15126
3.1202
3.08245
3.04247
2.99869
2.94599
2.87911
2.80425
2.74032
2.68235
2.6082
2.5204
2.4634
2.44938
2.44765
2.48578
2.74141
1.43914
2.2827
3.28237
3.62294
3.5779
3.67436
3.91268
4.73403
6.57695
8.83031
9.70991
9.62289
8.99233
8.28114
7.82288
7.40016
6.91343
6.37249
5.84313
5.38407
4.99889
4.66047
4.34116
4.04214
3.77951
3.56063
3.37682
3.2093
3.04092
2.85741
2.66849
2.51209
2.39348
2.26878
2.12673
2.00755
1.9379
1.87928
1.81002
1.72483
1.64201
1.5582
1.48979
1.44158
1.50081
1.84119
2.44597
3.05005
3.24216
3.17238
3.12068
3.15317
3.28282
3.75113
4.48806
5.14293
5.51757
5.51797
5.37267
5.12566
4.94616
4.81833
4.71683
4.60411
4.46411
4.32255
4.21392
4.11675
4.02221
3.91513
3.81647
3.75394
3.70777
3.66363
3.60862
3.52839
3.41406
3.28701
3.18328
3.10865
3.06346
3.02812
2.9929
2.95445
2.90945
2.8547
2.78321
2.70981
2.64246
2.58293
2.51817
2.49439
2.51288
2.61137
2.83367
3.19574
2.64085
3.30166
3.69452
3.75769
3.74706
3.70596
3.69712
3.71641
3.99367
5.39717
7.59289
8.43159
8.39885
8.13082
7.69663
7.18721
6.63442
6.09381
5.61543
5.21105
4.86034
4.533
4.22749
3.96199
3.73833
3.54049
3.34974
3.16086
2.97779
2.79632
2.60794
2.43503
2.30175
2.21909
2.13985
2.03636
1.93787
1.85649
1.78644
1.7054
1.63435
1.56149
1.57218
1.75416
2.25817
2.94056
3.38373
3.46338
3.4338
3.33613
3.15254
3.03736
2.98665
3.03128
3.30639
3.89217
4.65671
5.13114
5.13376
5.09323
5.01213
4.87951
4.70828
4.53456
4.39371
4.28439
4.22032
4.17367
4.09573
3.97585
3.86035
3.77133
3.70223
3.63548
3.55945
3.47431
3.39107
3.30769
3.20174
3.10243
3.04643
3.0139
2.98445
2.95148
2.90982
2.85372
2.77814
2.69772
2.62952
2.57566
2.56868
2.61563
2.77913
3.06082
3.3962
3.55902
3.45032
3.56094
3.66586
3.75285
3.778
3.75848
3.70658
3.64297
3.52485
3.55466
4.20834
5.74227
7.30595
7.68887
7.432
6.83068
6.25218
5.78132
5.39137
5.03958
4.71012
4.40546
4.13623
3.89635
3.6766
3.47685
3.28778
3.09473
2.89866
2.71277
2.54998
2.40949
2.28226
2.17802
2.08593
2.004
1.91414
1.8344
1.7628
1.71641
1.67224
1.7365
2.11128
2.7998
3.44257
3.71141
3.70425
3.61122
3.46561
3.317
3.17677
3.05117
2.97554
2.9635
2.95468
3.05082
3.4352
4.12291
4.64972
4.98124
4.99527
4.89813
4.69326
4.51409
4.40236
4.32742
4.25036
4.1575
4.05853
3.96526
3.87296
3.77341
3.68077
3.59528
3.51553
3.44335
3.37613
3.30337
3.21504
3.12248
3.05596
3.01336
2.97492
2.93125
2.88189
2.82265
2.76371
2.7099
2.65809
2.64222
2.70303
2.92636
3.24561
3.56254
3.71216
3.69752
3.7772
3.74586
3.72177
3.72166
3.72149
3.70747
3.66244
3.57598
3.40429
3.2222
3.01896
3.2036
4.2393
5.76374
6.44696
6.32674
5.9584
5.56208
5.19567
4.85314
4.53852
4.25657
4.00224
3.76708
3.54916
3.3533
3.17761
3.0033
2.83105
2.66314
2.50951
2.36424
2.2281
2.12299
2.04629
1.98915
1.9192
1.85617
1.79766
1.79356
1.97067
2.58366
3.39968
3.86187
3.9705
3.9271
3.79014
3.65149
3.50154
3.35313
3.22521
3.11091
3.03696
2.97103
2.92504
2.88086
2.89612
3.06937
3.54416
4.10396
4.58451
4.63705
4.60589
4.5567
4.46056
4.36812
4.25944
4.14887
4.05871
3.97846
3.87306
3.74598
3.6298
3.54495
3.48054
3.42292
3.36621
3.30688
3.24311
3.17002
3.07698
2.99837
2.94153
2.89452
2.85152
2.80659
2.78262
2.74721
2.75274
2.85225
3.11415
3.42326
3.6388
3.77724
3.80506
3.74925
3.69847
3.71041
3.73104
3.7285
3.71559
3.68062
3.60158
3.45221
3.24761
2.99307
2.78078
2.49983
2.53009
3.03394
4.23663
5.3911
5.58874
5.37865
5.00598
4.64425
4.32619
4.0565
3.82342
3.61506
3.42229
3.2457
3.07971
2.90025
2.7197
2.5533
2.41841
2.30183
2.1991
2.12078
2.06691
1.99615
1.9505
1.89539
1.95377
2.36247
3.16871
3.93784
4.18233
4.1773
4.08531
3.94878
3.82145
3.7029
3.57504
3.4313
3.27834
3.14292
3.05728
2.98271
2.92358
2.85948
2.82668
2.78641
2.83216
3.0767
3.61979
4.14347
4.45592
4.54325
4.51424
4.39876
4.26715
4.15827
4.05915
3.95238
3.82757
3.69257
3.5789
3.5168
3.47009
3.42458
3.37895
3.33147
3.27125
3.17023
3.04267
2.94887
2.89354
2.86039
2.83235
2.82171
2.83533
2.91486
3.09451
3.37482
3.66582
3.78302
3.80471
3.80101
3.77173
3.69625
3.742
3.7437
3.74743
3.73339
3.7046
3.63136
3.4867
3.24036
3.01449
2.76323
2.50417
2.26575
2.09267
2.01808
2.25096
3.15098
4.33792
4.79786
4.68973
4.40476
4.10022
3.84491
3.63917
3.45476
3.27295
3.10306
2.94045
2.77484
2.61844
2.50073
2.40543
2.32209
2.23451
2.14659
2.08881
2.02213
2.03102
2.25471
2.96455
3.88743
4.40338
4.5032
4.4542
4.28779
4.12399
3.98719
3.8669
3.75207
3.62884
3.48152
3.32033
3.18305
3.08929
3.01296
2.94692
2.88165
2.81941
2.7553
2.68673
2.65384
2.76264
3.16547
3.73252
4.1748
4.33503
4.3516
4.30404
4.21068
4.08432
3.92955
3.77409
3.63558
3.54793
3.50909
3.47291
3.43189
3.38761
3.341
3.2798
3.16363
3.00329
2.90555
2.86964
2.85342
2.85777
2.90028
3.0911
3.43083
3.74597
3.94268
4.01065
3.96272
3.82782
3.74396
3.70532
3.64414
3.71931
3.72041
3.71677
3.69679
3.64149
3.50048
3.24622
3.00506
2.74475
2.45393
2.15588
2.06314
1.93428
1.73359
1.57687
1.68666
2.283
3.39721
4.16817
4.14849
3.96028
3.68934
3.44851
3.26626
3.10438
2.97405
2.85815
2.74442
2.61222
2.50705
2.4088
2.33787
2.25517
2.18476
2.14146
2.24741
2.8019
3.757
4.59966
4.80609
4.74675
4.59359
4.42929
4.28019
4.16319
4.04709
3.92452
3.79741
3.66691
3.51435
3.35792
3.22982
3.13253
3.05698
2.991
2.926
2.8577
2.78596
2.69171
2.58313
2.51647
2.57012
2.82685
3.34641
3.87392
4.2082
4.25852
4.23389
4.1272
3.92769
3.74473
3.6056
3.53304
3.49811
3.47717
3.45071
3.40934
3.35297
3.27396
3.15336
2.99551
2.89779
2.88615
2.89107
2.97526
3.24416
3.69197
4.07512
4.18988
4.19178
4.13061
3.9675
3.79387
3.70805
3.67334
3.62472
3.70796
3.71795
3.71207
3.68051
3.52861
3.26804
2.99376
2.71052
2.347
2.12096
2.0103
1.85307
1.63949
1.40376
1.35093
1.31639
1.36589
1.74259
2.71162
3.54387
3.68438
3.56128
3.34118
3.16964
3.02903
2.92594
2.84043
2.75079
2.64264
2.53885
2.44416
2.38218
2.30834
2.32519
2.63337
3.56563
4.70138
5.20706
5.20407
5.08761
4.84732
4.62273
4.43861
4.30038
4.20177
4.11333
4.01277
3.87828
3.68961
3.50706
3.37482
3.27601
3.18461
3.098
3.03265
2.99012
2.94143
2.86607
2.74276
2.58655
2.46792
2.42829
2.44701
2.60483
2.99631
3.50697
3.91502
4.04254
4.02167
3.92102
3.7611
3.64221
3.56173
3.49363
3.44804
3.41431
3.36712
3.30888
3.24153
3.14366
3.00192
2.93311
2.95163
3.08172
3.40307
3.84184
4.24516
4.3676
4.37036
4.32921
4.18099
3.95522
3.77764
3.70344
3.67746
3.64215
3.73537
3.73547
3.70699
3.55756
3.29587
2.97911
2.62175
2.29722
2.07894
1.89125
1.71644
1.48283
1.29314
1.2599
1.24609
1.18032
1.08776
1.1059
1.37946
2.18468
3.06174
3.38845
3.33629
3.1924
3.04477
2.93462
2.86814
2.79402
2.71651
2.62185
2.54266
2.48981
2.60521
3.27653
4.49639
5.52413
5.63532
5.52251
5.29724
5.0631
4.85969
4.67505
4.50995
4.38467
4.27265
4.16522
4.0384
3.85828
3.66198
3.49895
3.39056
3.30996
3.2383
3.16714
3.08332
3.00463
2.92147
2.83525
2.74219
2.6308
2.5042
2.40693
2.37251
2.37343
2.44057
2.69592
3.13267
3.59812
3.79378
3.82618
3.79533
3.71999
3.61264
3.50243
3.41254
3.3625
3.31784
3.27355
3.22007
3.16371
3.09412
3.12984
3.31988
3.66554
4.00891
4.29185
4.40045
4.39642
4.36457
4.28963
4.12727
3.93143
3.79731
3.73366
3.71177
3.65974
3.76147
3.72662
3.58127
3.31658
2.94619
2.51458
2.23306
2.00054
1.74439
1.54782
1.38251
1.21276
1.12627
1.10419
1.07302
1.00111
0.957038
0.945423
0.962967
1.16502
1.86663
2.8836
3.30662
3.27005
3.16443
3.05095
2.9833
2.90186
2.83836
2.7574
2.77671
3.11245
4.19418
5.5002
6.1329
6.09025
5.874
5.54885
5.26341
5.061
4.89672
4.74097
4.58696
4.46131
4.34682
4.20269
4.02202
3.83114
3.6738
3.55441
3.44944
3.3411
3.24028
3.18987
3.14172
3.05838
2.9528
2.84251
2.74622
2.65848
2.55819
2.44534
2.36902
2.33333
2.32579
2.362
2.48352
2.78962
3.18451
3.52123
3.67642
3.67945
3.61781
3.50631
3.39389
3.31461
3.25912
3.24297
3.22932
3.2778
3.42716
3.72909
4.11479
4.33322
4.45312
4.48685
4.42139
4.3294
4.24914
4.17019
4.0483
3.91498
3.84937
3.81127
3.77525
3.69294
3.74336
3.60671
3.3162
2.93205
2.43149
2.09038
1.88193
1.59154
1.39128
1.30522
1.1679
1.04413
1.03568
1.02405
0.987447
0.951035
0.945506
0.941604
0.942653
0.954784
1.11695
1.77724
2.91659
3.23841
3.27803
3.25069
3.17623
3.05962
2.98419
3.08723
3.75207
5.26705
6.5084
6.53696
6.38221
6.07515
5.81157
5.56697
5.33569
5.17073
5.02747
4.87122
4.71143
4.5376
4.33896
4.14987
3.96746
3.80444
3.69238
3.60371
3.51312
3.42247
3.33312
3.22321
3.10113
2.99445
2.90344
2.82281
2.74875
2.67047
2.58764
2.50081
2.42827
2.3747
2.31825
2.27827
2.24362
2.2799
2.48037
2.85921
3.29363
3.51773
3.55183
3.51707
3.41549
3.30095
3.26364
3.27831
3.40628
3.73148
4.10829
4.50416
4.62899
4.61146
4.57566
4.49653
4.40327
4.30526
4.19422
4.0864
3.9906
3.94807
3.91689
3.87807
3.83454
3.74362
3.65234
3.32181
2.88187
2.37561
1.92157
1.68317
1.45254
1.22095
1.12157
1.04198
0.945669
0.928482
0.945955
0.940074
0.926063
0.926637
0.939473
0.960255
0.987726
1.00602
1.02785
1.15282
1.79954
2.75154
3.28712
3.30292
3.28908
3.30607
3.54876
4.58099
6.23377
7.17619
7.22078
6.92698
6.37296
5.99857
5.79808
5.6265
5.43803
5.24846
5.04283
4.84479
4.66643
4.49753
4.32056
4.13762
3.96242
3.82793
3.74105
3.65572
3.55974
3.44821
3.31793
3.18827
3.07363
2.97465
2.89338
2.82011
2.75393
2.69125
2.63441
2.57161
2.48071
2.3719
2.29373
2.23694
2.191
2.16898
2.17904
2.28542
2.6162
2.99994
3.31937
3.40377
3.36621
3.33972
3.40206
3.59028
3.95471
4.41624
4.70349
4.86659
4.85734
4.79366
4.66659
4.51409
4.38817
4.25657
4.14647
4.06
3.98967
3.95234
3.9276
3.89756
3.85283
3.74126
3.35585
2.78067
2.20329
1.69212
1.49133
1.33776
1.12005
1.01518
0.986151
0.94993
0.911836
0.920841
0.942744
0.944611
0.939517
0.948
0.97476
1.00492
1.02998
1.0437
1.04109
1.04222
1.11898
1.65142
2.57592
3.04063
3.5696
4.29299
5.58952
6.80157
7.56033
7.41965
7.04888
6.66929
6.37714
6.13758
5.93931
5.76174
5.58214
5.38291
5.15056
4.90481
4.67645
4.48186
4.32269
4.18543
4.06098
3.96589
3.87569
3.77474
3.66081
3.5282
3.3708
3.19723
3.07092
2.99363
2.92799
2.87149
2.82647
2.78397
2.73618
2.67128
2.56505
2.41726
2.29374
2.22852
2.18487
2.14424
2.11282
2.1231
2.19764
2.42448
2.77298
3.15239
3.35884
3.63789
4.02058
4.293
4.60294
4.7664
4.91099
4.92861
4.86596
4.75669
4.63582
4.52675
4.38912
4.22098
4.11708
4.07163
4.04352
4.01918
3.99241
3.95096
3.90108
3.77018
2.66032
1.71444
1.08703
0.830309
0.76946
0.701238
0.66162
0.684486
0.756005
0.82682
0.883384
0.970244
1.03446
1.03486
1.01466
1.00974
1.02632
1.05122
1.077
1.08514
1.08298
1.06793
1.04613
1.10899
1.49883