/*--------------------------------*- C++ -*----------------------------------*\
  =========                 |
  \\      /  F ield         | OpenFOAM: The Open Source CFD Toolbox
   \\    /   O peration     | Website:  https://openfoam.org
    \\  /    A nd           | Version:  7
     \\/     M anipulation  |
\*---------------------------------------------------------------------------*/
FoamFile
{
    version     2.0;
    format      ascii;
    class       volScalarField;
    location    "2.9";
    object      rho;
}
// * * * * * * * * * * * * * * * * * * * * * * * * * * * * * * * * * * * * * //

dimensions      [1 -3 0 0 0 0 0];

internalField   nonuniform List<scalar> 
4608
(
1.40001
1.40001
1.40001
1.40001
1.40001
1.40001
1.40001
1.40001
1.40001
1.40001
1.40001
1.40001
1.40001
1.40001
1.40001
1.40001
1.40001
1.40001
1.40001
1.40001
1.40001
1.40001
1.40001
1.40001
1.40001
1.40001
1.40001
1.40001
1.40001
1.40001
1.40001
1.40001
1.40001
1.40001
1.40001
1.40001
1.40001
1.40001
1.40001
1.40001
1.40001
1.40001
1.40001
1.40001
1.40001
1.40001
1.40001
1.40001
1.40001
1.40001
1.40001
1.40001
1.40001
1.40001
1.40001
1.40001
1.40001
1.40001
1.40001
1.40001
1.40001
1.40001
1.40001
1.40001
1.40001
1.40001
1.40001
1.40001
1.40001
1.40001
1.40001
1.40001
1.40001
1.40001
1.40001
1.40001
1.40001
1.40001
1.40001
1.40001
1.40001
1.40001
1.40001
1.40001
1.40001
1.40001
1.40001
1.40001
1.40001
1.40001
1.40001
1.40001
1.40001
1.40001
1.40001
1.40001
1.40001
1.40001
1.40001
1.40001
1.40001
1.40001
1.40001
1.40001
1.40001
1.40001
1.40001
1.40001
1.40001
1.40001
1.40001
1.40001
1.40001
1.40001
1.40001
1.40001
1.40001
1.40001
1.40001
1.40001
1.40001
1.40001
1.40001
1.40001
1.40001
1.40001
1.40001
1.40001
1.40001
1.40001
1.40001
1.40001
1.40001
1.40001
1.40001
1.40001
1.40001
1.40001
1.40001
1.40001
1.40001
1.40001
1.40001
1.40001
1.40001
1.40001
1.40001
1.40001
1.40001
1.40001
1.40001
1.40001
1.40001
1.40001
1.40001
1.40001
1.40001
1.40001
1.40001
1.40001
1.40001
1.40001
1.40001
1.40001
1.40001
1.40001
1.40001
1.40001
1.40001
1.40001
1.40001
1.40001
1.40001
1.40001
1.40001
1.40001
1.40001
1.40001
1.40001
1.40001
1.40001
1.40001
1.40001
1.40001
1.40001
1.40001
1.40001
1.40001
1.40001
1.40001
1.40001
1.40001
1.40001
1.40001
1.40001
1.40001
1.40001
1.40001
1.40001
1.40001
1.40001
1.40001
1.40001
1.40001
1.40001
1.40001
1.40001
1.40001
1.40001
1.40001
1.40001
1.40001
1.40001
1.40001
1.40001
1.40001
1.40001
1.40001
1.40001
1.40001
1.40001
1.40001
1.40001
1.40001
1.40001
1.40001
1.40001
1.40001
1.40001
1.40001
1.40001
1.40001
1.40001
1.40001
1.40001
1.40001
1.40001
1.40001
1.40001
1.40001
1.40001
1.40001
1.40001
1.40001
1.40001
1.40001
1.40001
1.40001
1.40001
1.40001
1.40001
1.40001
1.40001
1.40001
1.40001
1.40001
1.40001
1.40001
1.40001
1.40001
1.40001
1.40001
1.40001
1.40001
1.40001
1.40001
1.40001
1.40001
1.40001
1.40001
1.40001
1.40001
1.40001
1.40001
1.40001
1.40001
1.40001
1.40001
1.40001
1.40001
1.40001
1.40001
1.40001
1.40001
1.40001
1.40001
1.40001
1.40001
1.40001
1.40001
1.40001
1.40001
1.40001
1.40001
1.40001
1.40001
1.40001
1.40001
1.40001
1.40001
1.40001
1.40001
1.40001
1.40001
1.40001
1.40001
1.40001
1.40001
1.40001
1.40001
1.40001
1.40001
1.40001
1.40001
1.40001
1.40001
1.40001
1.40001
1.40001
1.40001
1.40001
1.40001
1.40001
1.40001
1.40001
1.40001
1.40001
1.40001
1.40001
1.40001
1.40001
1.40001
1.40001
1.40001
1.40001
1.40001
1.40001
1.40001
1.40001
1.40001
1.40001
1.40001
1.40001
1.40001
1.40001
1.40001
1.40001
1.40001
1.40001
1.40001
1.40001
1.40001
1.40001
1.40001
1.40001
1.40001
1.40001
1.40001
1.40001
1.40001
1.40001
1.40001
1.40001
1.40001
1.40001
1.40001
1.40001
1.40001
1.40001
1.40001
1.40001
1.40001
1.40001
1.40001
1.40001
1.40001
1.40001
1.40001
1.40001
1.40001
1.40001
1.40001
1.40001
1.40001
1.40001
1.40001
1.40001
1.40001
1.40001
1.40001
1.40001
1.40001
1.40001
1.40001
1.40001
1.40001
1.40001
1.40001
1.40001
1.40001
1.40001
1.40001
1.40001
1.40001
1.40001
1.40001
1.40001
1.40001
1.40001
1.40001
1.40001
1.40001
1.40001
1.40001
1.40001
1.40001
1.40001
1.40001
1.40001
1.40001
1.40001
1.40001
1.40001
1.40001
1.40001
1.40001
1.40001
1.40001
1.40001
1.40001
1.40001
1.40001
1.40001
1.40001
1.40001
1.40001
1.40001
1.40001
1.40001
1.40001
1.40001
1.40001
1.40001
1.40001
1.40001
1.40001
1.40001
1.40001
1.40001
1.40001
1.40001
1.40001
1.40001
1.40001
1.40001
1.40001
1.40001
1.40001
1.40001
1.40001
1.40001
1.40001
1.40001
1.40001
1.40001
1.40001
1.40001
1.40001
1.40001
1.40001
1.40001
1.40001
1.40001
1.40001
1.40001
1.40001
1.40001
1.40001
1.40001
1.40001
1.40001
1.40001
1.40001
1.40001
1.40001
1.40001
1.40001
1.40001
1.40001
1.40001
1.40001
1.40001
1.40001
1.40001
1.40001
1.40001
1.40001
1.40001
1.40001
1.40001
1.40001
1.40001
1.40001
1.40001
1.40001
1.40001
1.40001
1.40001
1.40001
1.40001
1.40001
1.40001
1.40001
1.40001
1.40001
1.40001
1.40001
1.40001
1.40001
1.40001
1.40001
1.40001
1.40001
1.40001
1.40001
1.40001
1.40001
1.40001
1.40001
1.40001
1.40001
1.40001
1.40001
1.40001
1.40001
1.40001
1.40001
1.40001
1.40001
1.40001
1.40001
1.40001
1.40001
1.40001
1.40001
1.40001
1.40001
1.40001
1.40001
1.40001
1.40001
1.40001
1.40001
1.40001
1.40001
1.40001
1.40001
1.40001
1.40001
1.40001
1.40001
1.40001
1.40001
1.40001
1.40001
1.40001
1.40001
1.40001
1.40001
1.40001
1.40001
1.40001
1.40001
1.40001
1.40001
1.40001
1.40001
1.40001
1.40001
1.40001
1.40001
1.40001
1.40001
1.40001
1.40001
1.40001
1.40001
1.40001
1.40001
1.40001
1.40001
1.40001
1.40001
1.40001
1.40001
1.40001
1.40001
1.40001
1.40001
1.40001
1.40001
1.40001
1.40001
1.40001
1.40001
1.40001
1.40001
1.40001
1.40001
1.40001
1.40001
1.40001
1.40001
1.40001
1.40001
1.40001
1.40001
1.40001
1.40001
1.40001
1.40001
1.40001
1.40001
1.40001
1.40001
1.40001
1.40001
1.40001
1.40001
1.40001
1.40001
1.40001
1.40001
1.40001
1.40001
1.40001
1.40001
1.40001
1.40001
1.40001
1.40001
1.40001
1.40001
1.40001
1.40001
1.40001
1.40001
1.40001
1.40001
1.40001
1.40001
1.40001
1.40001
1.40001
1.40001
1.40001
1.40001
1.40001
1.40001
1.40001
1.40001
1.40001
1.40001
1.40001
1.40001
1.40001
1.40001
1.40001
1.40001
1.40001
1.40001
1.40001
1.40001
1.40001
1.40001
1.40001
1.40001
1.40001
1.40001
1.40001
1.40001
1.40001
1.40001
1.40001
1.40001
1.40001
1.40001
1.40001
1.40001
1.40001
1.40001
1.40001
1.40001
1.40001
1.40001
1.40001
1.40001
1.40001
1.40001
1.40001
1.40001
1.40001
1.40001
1.40001
1.40001
1.40001
1.40001
1.40001
1.40001
1.40001
1.40001
1.40001
1.40001
1.40001
1.40001
1.40001
1.40001
1.40001
1.40001
1.40001
1.40001
1.40001
1.40001
1.40001
1.40001
1.40001
1.40001
1.40001
1.40001
1.40001
1.40001
1.40001
1.40001
1.40001
1.40001
1.40001
1.40001
1.40001
1.40001
1.40001
1.40001
1.40001
1.40001
1.40001
1.40001
1.40001
1.40001
1.40001
1.40001
1.40001
1.40001
1.40001
1.40001
1.40001
1.40001
1.40001
1.40001
1.40001
1.40001
1.40001
1.40001
1.40001
1.40001
1.40001
1.40001
1.40001
1.40001
1.40001
1.67618
2.0889
2.5416
2.98334
3.43449
3.81509
4.13028
4.42829
4.42046
4.28755
4.03516
3.72653
3.44934
3.37047
3.30604
3.30822
3.32673
3.34794
3.37212
3.39765
3.42065
3.42496
3.42352
3.42399
1.40305
1.41605
1.47468
1.59176
1.79734
2.11273
2.50687
2.9889
3.35695
3.52696
3.65921
3.63693
3.54342
3.47679
3.43039
3.39447
3.37833
3.36146
3.36241
3.37696
3.39844
3.41138
3.41372
3.41589
1.40001
1.39996
1.40015
1.40032
1.40313
1.42254
1.49482
1.7128
2.18498
2.89403
3.43236
3.72997
3.7666
3.70803
3.60471
3.47077
3.38544
3.33894
3.33191
3.34182
3.35751
3.37574
3.39036
3.39819
1.40001
1.4
1.4
1.4
1.39999
1.40004
1.39992
1.40168
1.42968
1.63431
2.17433
2.9396
3.50025
3.54134
3.52158
3.50514
3.45226
3.37735
3.3383
3.32765
3.32716
3.33446
3.35261
3.37812
1.40001
1.40001
1.4
1.4
1.4
1.4
1.39999
1.39999
1.39992
1.40101
1.43937
1.66808
2.33523
2.98748
3.42975
3.54195
3.52647
3.46828
3.40491
3.34702
3.30834
3.30484
3.31345
3.3366
1.40001
1.40001
1.40001
1.40001
1.40001
1.4
1.4
1.4
1.4
1.4
1.39994
1.40231
1.46794
1.80671
2.522
3.09705
3.38971
3.42969
3.39446
3.34642
3.32021
3.29751
3.28548
3.29221
1.40001
1.40001
1.40001
1.40001
1.40001
1.40001
1.40001
1.40001
1.40001
1.4
1.4
1.39999
1.40007
1.40909
1.52739
2.02011
2.81268
3.26463
3.34095
3.34214
3.34047
3.31841
3.28467
3.27942
1.40001
1.40001
1.40001
1.40001
1.40001
1.40001
1.40001
1.40001
1.40001
1.40001
1.40001
1.4
1.4
1.39998
1.40084
1.43601
1.68667
2.35914
3.02732
3.35374
3.3839
3.3638
3.31905
3.29581
1.40001
1.40001
1.40001
1.40001
1.40001
1.40001
1.40001
1.40001
1.40001
1.40001
1.40001
1.40001
1.4
1.4
1.4
1.40003
1.40607
1.52938
1.99662
2.71896
3.19432
3.36578
3.35876
3.32009
1.40001
1.40001
1.40001
1.40001
1.40001
1.40001
1.40001
1.40001
1.40001
1.40001
1.40001
1.40001
1.40001
1.4
1.4
1.4
1.39999
1.40174
1.43603
1.74751
2.4214
3.16535
3.25204
3.2806
1.40001
1.40001
1.40001
1.40001
1.40001
1.40001
1.40001
1.40001
1.40001
1.40001
1.40001
1.40001
1.40001
1.40001
1.40001
1.4
1.4
1.4
1.40012
1.41649
1.56774
2.2077
2.88319
3.27611
1.40001
1.40001
1.40001
1.40001
1.40001
1.40001
1.40001
1.40001
1.40001
1.40001
1.40001
1.40001
1.40001
1.40001
1.40001
1.40001
1.4
1.4
1.4
1.40004
1.40436
1.4998
1.99952
2.74122
1.40001
1.40001
1.40001
1.40001
1.40001
1.40001
1.40001
1.40001
1.40001
1.40001
1.40001
1.40001
1.40001
1.40001
1.40001
1.40001
1.40001
1.40001
1.4
1.4
1.40001
1.40196
1.46485
1.81271
1.40001
1.40001
1.40001
1.40001
1.40001
1.40001
1.40001
1.40001
1.40001
1.40001
1.40001
1.40001
1.40001
1.40001
1.40001
1.40001
1.40001
1.40001
1.40001
1.4
1.4
1.4
1.40111
1.4281
1.40001
1.40001
1.40001
1.40001
1.40001
1.40001
1.40001
1.40001
1.40001
1.40001
1.40001
1.40001
1.40001
1.40001
1.40001
1.40001
1.40001
1.40001
1.40001
1.40001
1.4
1.4
1.4
1.40007
1.40001
1.40001
1.40001
1.40001
1.40001
1.40001
1.40001
1.40001
1.40001
1.40001
1.40001
1.40001
1.40001
1.40001
1.40001
1.40001
1.40001
1.40001
1.40001
1.40001
1.40001
1.4
1.4
1.4
1.40001
1.40001
1.40001
1.40001
1.40001
1.40001
1.40001
1.40001
1.40001
1.40001
1.40001
1.40001
1.40001
1.40001
1.40001
1.40001
1.40001
1.40001
1.40001
1.40001
1.40001
1.4
1.4
1.39999
1.40001
1.40001
1.40001
1.40001
1.40001
1.40001
1.40001
1.40001
1.40001
1.40001
1.40001
1.40001
1.40001
1.40001
1.40001
1.40001
1.40001
1.40001
1.40001
1.40001
1.4
1.4
1.40001
1.4
1.40001
1.40001
1.40001
1.40001
1.40001
1.40001
1.40001
1.40001
1.40001
1.40001
1.40001
1.40001
1.40001
1.40001
1.40001
1.40001
1.40001
1.40001
1.40001
1.4
1.4
1.4
1.40125
1.42473
1.40001
1.40001
1.40001
1.40001
1.40001
1.40001
1.40001
1.40001
1.40001
1.40001
1.40001
1.40001
1.40001
1.40001
1.40001
1.40001
1.40001
1.4
1.4
1.4
1.40001
1.40231
1.46141
1.83361
1.40001
1.40001
1.40001
1.40001
1.40001
1.40001
1.40001
1.40001
1.40001
1.40001
1.40001
1.40001
1.40001
1.40001
1.40001
1.40001
1.4
1.4
1.4
1.40005
1.40404
1.50332
1.97352
2.85297
1.40001
1.40001
1.40001
1.40001
1.40001
1.40001
1.40001
1.40001
1.40001
1.40001
1.40001
1.40001
1.40001
1.40001
1.40001
1.4
1.4
1.39999
1.40012
1.41712
1.56908
2.18822
2.88596
3.31434
1.40001
1.40001
1.40001
1.40001
1.40001
1.40001
1.40001
1.40001
1.40001
1.40001
1.40001
1.40001
1.40001
1.4
1.4
1.4
1.39999
1.40176
1.43564
1.75324
2.42024
3.15053
3.26569
3.29452
1.40001
1.40001
1.40001
1.40001
1.40001
1.40001
1.40001
1.40001
1.40001
1.40001
1.40001
1.40001
1.4
1.4
1.4
1.40003
1.40605
1.5293
1.99635
2.72647
3.18118
3.36668
3.36464
3.32829
1.40001
1.40001
1.40001
1.40001
1.40001
1.40001
1.40001
1.40001
1.40001
1.40001
1.40001
1.4
1.4
1.39998
1.40084
1.43616
1.68691
2.3565
3.02995
3.35549
3.3815
3.36173
3.32283
3.29786
1.40001
1.40001
1.40001
1.40001
1.40001
1.40001
1.40001
1.40001
1.40001
1.4
1.4
1.39999
1.40007
1.4091
1.52725
2.02101
2.81212
3.26335
3.34239
3.3428
3.34015
3.31777
3.28533
3.27931
1.40001
1.40001
1.40001
1.40001
1.40001
1.4
1.4
1.4
1.4
1.4
1.39994
1.40231
1.46794
1.80662
2.52224
3.0975
3.38898
3.42922
3.39517
3.34675
3.31913
3.29625
3.28582
3.29234
1.40001
1.40001
1.4
1.4
1.4
1.4
1.39999
1.39999
1.39992
1.40101
1.43936
1.6681
2.33527
2.98717
3.43004
3.54191
3.52647
3.46798
3.40512
3.34684
3.30798
3.30472
3.31357
3.33688
1.40001
1.4
1.4
1.4
1.39999
1.40004
1.39992
1.40168
1.42968
1.63431
2.17426
2.93977
3.49997
3.54135
3.52169
3.50539
3.45234
3.37691
3.33874
3.32748
3.32698
3.33442
3.35275
3.37812
1.40001
1.39996
1.40015
1.40032
1.40313
1.42254
1.49482
1.71278
2.18502
2.89394
3.43238
3.73
3.76664
3.70804
3.60476
3.47095
3.38525
3.33873
3.33225
3.34193
3.35732
3.37556
3.39046
3.39821
1.40305
1.41605
1.47467
1.59178
1.79731
2.11277
2.50685
2.9889
3.35701
3.5269
3.65918
3.63697
3.54351
3.47672
3.43053
3.39446
3.37822
3.36146
3.36251
3.37703
3.39838
3.41137
3.41378
3.41593
1.67618
2.08889
2.54163
2.98328
3.43453
3.81515
4.13016
4.42831
4.42049
4.28753
4.03514
3.72656
3.44939
3.37039
3.30603
3.30818
3.32664
3.34789
3.3722
3.3977
3.42066
3.42502
3.42362
3.42404
2.66479
1.94146
1.3952
1.14506
1.06007
0.974318
0.937107
0.960534
1.02959
1.09959
1.15579
1.23863
1.30559
1.3077
1.28987
1.284
1.29931
1.32465
1.35089
1.35873
1.35688
1.3451
1.32343
1.36805
1.70739
2.56572
3.64778
4.83723
5.79543
5.95817
5.65125
5.17404
4.8361
4.67085
4.56931
4.44241
4.28697
4.14362
4.02832
3.93185
3.84638
3.76542
3.6807
3.59072
3.49769
3.39686
3.28083
3.16429
3.07267
3.00543
2.95451
2.90993
2.86556
2.81647
2.75855
2.68857
2.61721
2.5549
2.50006
2.44873
2.39616
2.34382
2.29502
2.25046
2.21044
2.17144
2.14029
2.10797
2.06744
2.02718
1.98817
2.00068
2.09696
2.33923
2.78651
3.24303
3.62197
3.95639
4.09546
4.04862
3.93237
3.75218
3.61904
3.53012
3.48719
3.4647
3.44051
3.41187
3.38646
3.35608
3.30644
3.22266
3.12712
3.08555
3.06757
3.03533
3.14448
2.74481
2.32812
1.93544
1.7576
1.62086
1.43568
1.33403
1.29909
1.25801
1.2128
1.21979
1.24228
1.24494
1.23894
1.24587
1.26985
1.29848
1.32269
1.33458
1.33277
1.33252
1.38569
1.75475
2.45858
2.74486
3.05854
3.494
4.17629
4.7588
5.12892
5.1213
4.95059
4.76758
4.60926
4.45341
4.2929
4.16341
4.06518
3.97073
3.87989
3.79902
3.7166
3.62724
3.52941
3.42022
3.3001
3.18674
3.11102
3.05607
3.00222
2.9496
2.8998
2.84933
2.79195
2.7232
2.65208
2.59016
2.53789
2.48991
2.44051
2.38774
2.33424
2.28443
2.2396
2.19798
2.16472
2.13411
2.09869
2.08088
2.10927
2.23682
2.44695
2.6567
2.82353
3.03087
3.24042
3.50111
3.70671
3.75551
3.77355
3.73168
3.64921
3.55195
3.50716
3.48241
3.45354
3.42302
3.39563
3.3651
3.32194
3.24521
3.14988
3.10433
3.08532
3.05302
3.33371
3.11815
2.81866
2.46014
2.10976
1.91862
1.73514
1.53214
1.43602
1.36092
1.26769
1.24886
1.26661
1.26243
1.24694
1.24574
1.25679
1.27673
1.30278
1.31981
1.33835
1.4533
1.881
2.55928
2.92887
2.92797
2.91332
2.92026
3.04357
3.5908
4.42376
4.96565
5.0129
4.89227
4.62109
4.41334
4.27566
4.1634
4.05279
3.93074
3.81379
3.71739
3.6362
3.55424
3.46485
3.36448
3.26327
3.18439
3.11591
3.04463
2.97323
2.90505
2.84185
2.78273
2.7252
2.66458
2.60771
2.55935
2.51441
2.46889
2.42141
2.36647
2.30518
2.24454
2.19275
2.15483
2.12869
2.11488
2.12575
2.19562
2.37093
2.62403
2.81378
2.89467
2.86828
2.84749
2.88807
3.03175
3.26064
3.4937
3.6396
3.70555
3.6685
3.57307
3.51538
3.48212
3.46226
3.43244
3.39936
3.36114
3.30884
3.22408
3.12548
3.08082
3.06316
3.03365
3.36869
3.29014
3.10468
2.84942
2.49475
2.23647
2.08024
1.85145
1.67457
1.60076
1.48389
1.36864
1.35945
1.34914
1.31487
1.27672
1.27011
1.26671
1.26816
1.27835
1.42825
1.93598
2.62081
2.93451
2.93297
2.90343
2.83441
2.74683
2.68301
2.73871
3.10165
3.93075
4.5996
4.63313
4.58315
4.44411
4.315
4.18554
4.04774
3.91716
3.80191
3.69629
3.59805
3.50722
3.42672
3.35568
3.28577
3.2139
3.13135
3.0517
2.97579
2.90228
2.82972
2.75831
2.69048
2.63323
2.58529
2.54642
2.50954
2.46626
2.42011
2.3658
2.30264
2.23839
2.18279
2.1613
2.14429
2.16808
2.30926
2.5583
2.8163
2.97571
2.99308
2.97703
2.89703
2.80064
2.77083
2.78585
2.86461
3.03798
3.29124
3.51513
3.56772
3.53496
3.52457
3.51129
3.496
3.45796
3.41353
3.3683
3.31355
3.22262
3.11872
3.07124
3.05717
3.03287
3.35482
3.34117
3.25803
3.09262
2.8484
2.54486
2.33976
2.16644
1.9628
1.80046
1.66477
1.51964
1.43972
1.41853
1.39023
1.32429
1.28274
1.27063
1.28686
1.44796
2.0229
2.60804
2.91851
2.92589
2.88062
2.79429
2.714
2.63001
2.58891
2.5448
2.55781
2.75125
3.39287
4.02789
4.40871
4.38759
4.28271
4.13586
4.00275
3.8976
3.79497
3.68693
3.57893
3.46953
3.36963
3.28981
3.22071
3.17083
3.1334
3.07988
3.00756
2.91406
2.82178
2.75271
2.6803
2.59977
2.53912
2.50666
2.48719
2.47225
2.44264
2.39644
2.33453
2.26993
2.21549
2.19469
2.24824
2.43995
2.71516
2.95541
3.06923
3.07049
3.04279
2.98879
2.90364
2.8027
2.74603
2.73334
2.73363
2.76701
2.90182
3.12773
3.35759
3.46802
3.49266
3.48784
3.45987
3.41924
3.37267
3.33068
3.28699
3.22113
3.14666
3.08079
3.03606
3.00535
3.31742
3.32343
3.31223
3.22587
3.06234
2.85455
2.6101
2.37687
2.21406
2.06912
1.93245
1.74389
1.58249
1.55358
1.54192
1.48492
1.40109
1.41147
1.61968
2.20658
2.76765
2.95591
2.93669
2.86806
2.78262
2.70753
2.63819
2.57009
2.52248
2.48053
2.42853
2.38643
2.46258
2.82378
3.50581
3.98718
4.09803
4.08315
3.99277
3.90176
3.7976
3.67656
3.55151
3.42936
3.32444
3.25919
3.20849
3.15419
3.0903
3.02733
2.9661
2.91236
2.84329
2.75065
2.65384
2.57101
2.52185
2.49332
2.45918
2.41977
2.38539
2.35011
2.32644
2.28761
2.29719
2.39933
2.63489
2.88835
3.05794
3.15984
3.16126
3.13218
3.08632
3.0139
2.90503
2.79205
2.74372
2.72273
2.70692
2.70737
2.72488
2.79848
2.95864
3.15709
3.30645
3.35815
3.37698
3.38273
3.36234
3.32052
3.26802
3.21394
3.16284
3.09707
3.03545
3.00144
3.2869
3.2976
3.29731
3.28206
3.19037
3.02525
2.84677
2.6559
2.4004
2.23315
2.15273
2.03378
1.86395
1.66975
1.62559
1.59636
1.63091
1.88462
2.52945
3.05822
3.1188
3.04104
2.9184
2.81678
2.74583
2.68256
2.6137
2.55139
2.50358
2.45244
2.38499
2.3308
2.25291
2.25198
2.41225
2.95061
3.54737
3.89296
3.97024
3.92741
3.8245
3.69
3.54284
3.41126
3.30331
3.22966
3.17775
3.12025
3.06208
3.01083
2.96174
2.89826
2.80882
2.7022
2.61837
2.57412
2.5354
2.49065
2.437
2.39347
2.36472
2.35564
2.35744
2.42046
2.61864
2.89118
3.0704
3.14876
3.20268
3.1948
3.16005
3.12031
3.06968
3.00011
2.89237
2.79437
2.75865
2.73565
2.71366
2.69708
2.68734
2.68598
2.71118
2.78489
2.92003
3.10338
3.23442
3.32571
3.33831
3.30856
3.25802
3.21349
3.16953
3.12139
3.06727
2.9995
3.29286
3.29437
3.29188
3.28038
3.24703
3.15866
2.99674
2.84111
2.6677
2.46594
2.24912
2.18233
2.08783
1.93284
1.80548
1.88298
2.2707
2.9587
3.43125
3.42155
3.29894
3.12677
2.97402
2.86978
2.78799
2.71116
2.63005
2.57172
2.51456
2.44548
2.37358
2.31268
2.23933
2.17756
2.11903
2.17748
2.49979
3.09106
3.6078
3.77217
3.76831
3.69539
3.56427
3.43113
3.31216
3.21255
3.14454
3.09164
3.04307
2.99303
2.93973
2.86995
2.77993
2.68228
2.60629
2.55273
2.50575
2.46128
2.42202
2.402
2.39272
2.4316
2.58908
2.85026
3.13592
3.24086
3.27877
3.28523
3.25798
3.21341
3.16726
3.12029
3.06617
2.99522
2.8921
2.81275
2.78053
2.75363
2.72306
2.69518
2.67538
2.65794
2.65106
2.63397
2.64428
2.72676
2.91205
3.09224
3.2256
3.27113
3.25724
3.23367
3.20986
3.16923
3.10484
3.00328
3.31077
3.31329
3.31126
3.3013
3.28341
3.23664
3.14526
2.98775
2.83847
2.66865
2.48795
2.31989
2.19897
2.1402
2.30025
2.86939
3.53738
3.79618
3.7381
3.57469
3.39486
3.23303
3.0949
2.98339
2.88475
2.7876
2.68591
2.59764
2.51885
2.44784
2.38679
2.32164
2.25091
2.1678
2.10561
2.04896
2.05186
2.2086
2.68076
3.23761
3.59608
3.60625
3.57295
3.46261
3.32997
3.20719
3.11682
3.06721
3.02607
2.97413
2.91395
2.83864
2.75271
2.66396
2.59134
2.53903
2.4976
2.46425
2.43538
2.44542
2.54244
2.80283
3.12956
3.35362
3.37052
3.33907
3.32127
3.28759
3.24866
3.20946
3.16736
3.11664
3.05864
2.98747
2.90563
2.84535
2.80695
2.77446
2.74248
2.71192
2.68287
2.65145
2.62046
2.597
2.56264
2.5508
2.60793
2.76983
2.98511
3.15987
3.24628
3.249
3.23404
3.1958
3.12745
3.00973
3.28684
3.30159
3.31099
3.30582
3.29666
3.27247
3.22039
3.12215
2.98757
2.81403
2.67136
2.48021
2.49969
2.80849
3.51556
4.14931
4.2416
4.1305
3.93207
3.7335
3.54833
3.37789
3.22395
3.08936
2.97347
2.86948
2.77245
2.68006
2.58603
2.48705
2.39556
2.3071
2.23443
2.17387
2.12302
2.06019
2.01276
1.97012
2.01642
2.28686
2.83237
3.27547
3.42302
3.40846
3.32605
3.22619
3.12983
3.05575
2.9943
2.93105
2.8708
2.80478
2.73287
2.65893
2.59099
2.53477
2.50467
2.48322
2.52477
2.73556
3.0796
3.40422
3.56631
3.56588
3.50204
3.38212
3.31047
3.27646
3.2444
3.21041
3.17184
3.12189
3.06093
2.99289
2.93143
2.88196
2.84108
2.80394
2.76744
2.73098
2.69512
2.65677
2.61439
2.57606
2.54077
2.52027
2.51471
2.54963
2.6803
2.89674
3.11453
3.18883
3.18405
3.16856
3.12801
3.01898
3.35556
3.34201
3.32365
3.31473
3.30746
3.28701
3.2573
3.20679
3.09711
2.97147
2.83217
2.94821
3.54048
4.33096
4.69154
4.65614
4.4752
4.26699
4.07651
3.89759
3.72091
3.54269
3.36862
3.20744
3.06163
2.92851
2.81585
2.7262
2.64438
2.55132
2.45275
2.3567
2.26695
2.17912
2.10866
2.0592
2.00543
1.9552
1.90047
1.89752
2.02344
2.43438
2.93272
3.25404
3.28677
3.2595
3.16227
3.05434
2.96625
2.88913
2.82703
2.76764
2.71098
2.65192
2.60494
2.55184
2.54941
2.65503
2.94982
3.37137
3.63458
3.66799
3.6505
3.59167
3.49409
3.41262
3.34589
3.29868
3.2571
3.21487
3.17602
3.12936
3.06814
3.00485
2.95492
2.91465
2.87768
2.83933
2.79771
2.75548
2.71505
2.67232
2.62366
2.57208
2.52819
2.50998
2.50028
2.49022
2.50725
2.60617
2.80222
2.99872
3.08662
3.1217
3.11144
3.02377
3.22479
3.28646
3.33589
3.34518
3.34172
3.31982
3.28101
3.24379
3.17244
3.1838
3.54014
4.40192
5.1402
5.33579
5.21994
4.92966
4.64999
4.41422
4.21536
4.0311
3.85068
3.67133
3.49506
3.3268
3.1695
3.02484
2.90042
2.79041
2.6803
2.57042
2.47549
2.39634
2.31315
2.22888
2.15388
2.08403
2.0093
1.93887
1.87428
1.8418
1.81301
1.86062
2.12436
2.60026
3.01816
3.14229
3.12386
3.04747
2.9507
2.87242
2.80843
2.75807
2.70893
2.67349
2.63854
2.666
2.86611
3.22406
3.56885
3.81968
3.84279
3.7955
3.6936
3.58262
3.49391
3.43081
3.37844
3.33407
3.28531
3.22971
3.17936
3.13174
3.0791
3.02606
2.97935
2.93981
2.90444
2.86741
2.82506
2.77797
2.731
2.68366
2.63346
2.58544
2.54743
2.51491
2.49181
2.47586
2.465
2.47391
2.52951
2.65809
2.81788
2.96252
3.02916
3.0043
2.54709
3.19896
3.3423
3.32227
3.30248
3.28815
3.27694
3.28853
3.45391
4.19572
5.33775
5.81391
5.74256
5.57952
5.33855
5.09611
4.84436
4.58967
4.35342
4.14601
3.95901
3.77692
3.59369
3.41313
3.24357
3.09198
2.95947
2.84334
2.74134
2.64426
2.53993
2.42849
2.32323
2.24174
2.1833
2.12031
2.04014
1.96212
1.89324
1.8321
1.79205
1.76039
1.77087
1.90024
2.25692
2.71431
2.96675
2.97031
2.92916
2.87442
2.79372
2.75265
2.73085
2.77588
2.90914
3.20874
3.59395
3.79255
3.86663
3.87783
3.84599
3.79496
3.71643
3.6154
3.52901
3.4611
3.40874
3.36414
3.31067
3.24785
3.18479
3.12787
3.0803
3.03967
3.00112
2.96334
2.92718
2.88948
2.8454
2.79361
2.73808
2.68522
2.63979
2.60161
2.57124
2.53847
2.50837
2.47995
2.45209
2.4424
2.43131
2.44891
2.51384
2.65303
2.81887
2.93442
1.69326
2.47523
3.039
3.24876
3.28909
3.30421
3.4385
3.91929
4.90536
6.01007
6.51527
6.45317
6.08915
5.71147
5.45154
5.22441
4.98362
4.72127
4.4538
4.21501
4.0222
3.85249
3.67854
3.4991
3.32088
3.15415
3.01267
2.87994
2.74885
2.64005
2.55603
2.4769
2.39369
2.29817
2.1858
2.11169
2.06831
1.99624
1.91127
1.84228
1.80396
1.7748
1.73003
1.69661
1.73876
1.96059
2.40095
2.70804
2.8229
2.81247
2.77981
2.79316
2.9629
3.28248
3.6256
3.96775
4.13762
4.10964
4.01364
3.88249
3.80298
3.75247
3.70046
3.63137
3.55865
3.49159
3.43047
3.37597
3.31628
3.24981
3.18938
3.13895
3.09785
3.0609
3.02269
2.97862
2.92943
2.88395
2.8408
2.79636
2.74814
2.70083
2.65747
2.61609
2.57941
2.55014
2.52241
2.49269
2.46107
2.43111
2.40347
2.38184
2.37661
2.41132
2.51666
2.74813
1.4208
1.63867
2.24458
2.91769
3.29987
3.5628
4.52324
5.53082
6.33803
6.6428
6.60876
6.51379
6.28503
5.93995
5.61561
5.32175
5.05474
4.8026
4.54916
4.2936
4.06456
3.87013
3.70167
3.54094
3.38746
3.23338
3.08603
2.93988
2.79535
2.67679
2.56768
2.46557
2.38484
2.31092
2.22513
2.11506
2.01957
1.95701
1.89872
1.85572
1.81377
1.76696
1.70286
1.63775
1.58631
1.59566
1.72793
2.06789
2.48035
2.75493
2.86121
3.1646
3.67361
3.96702
4.13161
4.22571
4.20717
4.15978
4.0454
3.91003
3.80562
3.73266
3.68195
3.63179
3.5814
3.52947
3.47033
3.40114
3.32628
3.25543
3.19943
3.1575
3.12216
3.08742
3.04963
3.00561
2.95534
2.89883
2.83709
2.78151
2.74027
2.70619
2.67199
2.64059
2.61159
2.58281
2.55624
2.52889
2.49745
2.46012
2.41455
2.35754
2.30817
2.30177
2.323
2.49855
1.40033
1.41635
1.54768
2.15705
3.47032
4.47638
5.87469
6.5429
7.02266
6.93184
6.65648
6.46206
6.33
6.06959
5.73204
5.38977
5.07374
4.79381
4.5869
4.41237
4.20059
3.98019
3.77757
3.58221
3.39944
3.22669
3.05333
2.94299
2.87123
2.77174
2.6528
2.53536
2.43282
2.33717
2.23661
2.11307
1.9979
1.96315
1.95066
1.91811
1.86359
1.7964
1.71007
1.62374
1.57499
1.5558
1.56241
1.63196
1.93991
2.62465
3.20689
3.81257
4.2276
4.40566
4.43934
4.40049
4.25553
4.10658
4.02276
3.91889
3.82824
3.74724
3.67281
3.62693
3.60027
3.56754
3.48608
3.36385
3.27234
3.21995
3.1862
3.15558
3.12729
3.09912
3.06953
3.02632
2.94874
2.86916
2.82586
2.79014
2.75321
2.72015
2.68912
2.6528
2.60742
2.56445
2.53064
2.5053
2.47787
2.44264
2.39672
2.33969
2.2947
2.27931
2.28298
2.35117
1.40063
1.41084
1.56487
2.10374
3.21296
4.7855
5.79036
6.50714
7.07057
6.85762
6.49972
6.38165
6.27657
6.09493
5.81256
5.47804
5.14345
4.85649
4.60149
4.34727
4.1144
3.89118
3.71973
3.60126
3.46208
3.29271
3.11642
2.95208
2.80813
2.69902
2.60082
2.49371
2.40317
2.35087
2.28226
2.17964
2.06375
1.97807
1.91595
1.8704
1.81893
1.75723
1.70157
1.65597
1.6061
1.56335
1.56856
1.65717
1.98295
2.53852
3.31218
3.90978
4.1434
4.41288
4.45335
4.35854
4.1907
4.05898
3.99887
3.92553
3.84093
3.75552
3.69088
3.65251
3.61399
3.55401
3.47002
3.35914
3.25123
3.20822
3.19204
3.18389
3.16403
3.13852
3.10946
3.06197
2.96897
2.85872
2.80377
2.77106
2.74273
2.71564
2.68702
2.65418
2.61484
2.57175
2.53007
2.50006
2.47569
2.44078
2.38269
2.33164
2.30262
2.28428
2.28954
2.35965
1.43004
1.62451
2.21384
2.86315
3.10268
3.81019
4.53303
5.61208
6.4164
6.52489
6.47741
6.4007
6.22661
5.94299
5.65628
5.38077
5.11044
4.85063
4.58307
4.31812
4.08756
3.89398
3.70741
3.51481
3.34107
3.19164
3.05495
2.91446
2.77551
2.6658
2.58937
2.51769
2.42501
2.30967
2.20003
2.11686
2.05228
1.97834
1.90493
1.8517
1.80822
1.75706
1.68203
1.62715
1.608
1.61967
1.75199
2.10937
2.53946
2.66297
2.92662
3.29307
3.55531
3.97011
4.13679
4.17938
4.17131
4.12118
4.04529
3.95729
3.86547
3.78557
3.7289
3.67152
3.60438
3.52513
3.44026
3.34997
3.2694
3.21967
3.18132
3.15076
3.12466
3.09975
3.07375
3.0355
2.95768
2.84678
2.79456
2.77659
2.75632
2.73143
2.70545
2.6781
2.64587
2.60426
2.55622
2.51398
2.47488
2.42465
2.3658
2.32785
2.31824
2.31687
2.34228
2.5073
1.76709
2.39831
3.08509
3.27552
3.23891
3.29714
3.4397
3.91886
4.91978
6.00119
6.40653
6.37053
6.07792
5.73656
5.50759
5.29118
5.04065
4.75896
4.47644
4.2255
4.00879
3.81309
3.62342
3.4427
3.28271
3.14799
3.03234
2.92401
2.81277
2.68984
2.56132
2.45319
2.37015
2.28173
2.17935
2.09189
2.03938
1.99386
1.9401
1.87416
1.8097
1.74345
1.68901
1.64809
1.69229
1.94107
2.36118
2.75404
2.86702
2.82037
2.78365
2.80109
2.87715
3.15821
3.57995
3.92867
4.13274
4.13634
4.06204
3.92971
3.82849
3.75336
3.6949
3.63242
3.55493
3.47662
3.4155
3.35789
3.3005
3.23685
3.17908
3.14279
3.11566
3.08882
3.05509
3.00623
2.93691
2.85944
2.79473
2.747
2.71759
2.69446
2.67167
2.64753
2.61991
2.58574
2.53942
2.4902
2.44435
2.40447
2.36194
2.34679
2.35908
2.42388
2.5682
2.79258
2.64421
3.08414
3.33572
3.3452
3.33427
3.30537
3.29778
3.30806
3.469
4.23861
5.34675
5.76683
5.75314
5.6241
5.40949
5.15143
4.86764
4.58637
4.33204
4.11086
3.91262
3.72205
3.54056
3.3815
3.2475
3.12803
3.00969
2.8882
2.76671
2.64372
2.51452
2.39525
2.30253
2.24454
2.18763
2.11103
2.03664
1.97424
1.91994
1.85722
1.8025
1.74543
1.75274
1.88348
2.23448
2.68021
2.9623
2.99925
2.97724
2.91179
2.79209
2.72149
2.68208
2.70724
2.87257
3.21445
3.64352
3.91132
3.91656
3.89587
3.84867
3.77213
3.67659
3.58107
3.50355
3.44277
3.40643
3.37893
3.33305
3.26297
3.19549
3.14329
3.10238
3.06238
3.01629
2.96501
2.91555
2.86587
2.801
2.73767
2.70116
2.68002
2.66144
2.64135
2.61594
2.58054
2.53131
2.47786
2.43183
2.39646
2.39216
2.42339
2.53002
2.70802
2.91543
3.01142
3.1642
3.22813
3.29032
3.33646
3.3471
3.33353
3.29782
3.25402
3.17483
3.18941
3.55202
4.37932
5.16049
5.356
5.2325
4.9315
4.63524
4.38991
4.18272
3.9904
3.80441
3.62785
3.46955
3.32776
3.19716
3.07671
2.9593
2.835
2.70472
2.57854
2.46713
2.37125
2.28416
2.21126
2.1448
2.08318
2.01437
1.95347
1.89837
1.86342
1.83003
1.87633
2.13571
2.58637
2.98723
3.14557
3.13901
3.07763
2.98321
2.88758
2.79591
2.71438
2.66295
2.65365
2.64329
2.69948
2.9283
3.32718
3.62524
3.80755
3.81527
3.76201
3.65085
3.55389
3.49407
3.452
3.40745
3.35446
3.2982
3.24449
3.19086
3.13206
3.07658
3.02526
2.97755
2.93481
2.89547
2.85297
2.79987
2.74185
2.69917
2.67224
2.64845
2.6219
2.59166
2.55425
2.51672
2.48222
2.44784
2.43646
2.47569
2.61831
2.81706
3.00568
3.09457
3.0849
3.34918
3.32599
3.30795
3.30733
3.30453
3.29326
3.26163
3.20395
3.09196
2.97368
2.8364
2.9424
3.52896
4.34407
4.70157
4.64304
4.45393
4.24595
4.04949
3.86111
3.68348
3.52086
3.37218
3.23349
3.10346
2.98422
2.87427
2.76179
2.6481
2.53572
2.43171
2.33293
2.23951
2.16503
2.10906
2.06634
2.0136
1.96611
1.92289
1.91822
2.04154
2.4509
2.95336
3.22668
3.28386
3.25616
3.17126
3.08408
2.98934
2.89543
2.81312
2.73843
2.68926
2.64592
2.614
2.58234
2.59065
2.69556
2.97862
3.30196
3.57031
3.60246
3.58607
3.56083
3.50831
3.45686
3.39658
3.33471
3.28412
3.23864
3.17785
3.10287
3.03313
2.98202
2.94382
2.91026
2.87776
2.84372
2.80598
2.76124
2.70304
2.6535
2.61775
2.58859
2.56248
2.53594
2.52237
2.50029
2.50335
2.56573
2.72958
2.91706
3.04159
3.11773
3.13533
3.10365
3.28948
3.29223
3.30316
3.30134
3.29277
3.26934
3.2177
3.12077
2.98761
2.82001
2.67829
2.48421
2.50095
2.80347
3.50304
4.12677
4.23633
4.12483
3.92291
3.72254
3.54206
3.38615
3.24967
3.12603
3.00964
2.90084
2.79639
2.68066
2.56217
2.45174
2.36069
2.28109
2.21073
2.1566
2.11818
2.06587
2.03161
1.99048
2.02999
2.30229
2.81496
3.26812
3.39251
3.38516
3.32965
3.24867
3.17181
3.09869
3.01906
2.9296
2.83401
2.74822
2.69284
2.6439
2.60451
2.56166
2.53947
2.513
2.54157
2.69172
3.01456
3.31438
3.48143
3.53703
3.52269
3.46069
3.38827
3.32816
3.27276
3.21216
3.13994
3.06005
2.99167
2.95428
2.92673
2.9009
2.87542
2.84832
2.81297
2.75208
2.67258
2.6124
2.57673
2.55651
2.54031
2.53783
2.54713
2.5974
2.70824
2.87933
3.0533