/*--------------------------------*- C++ -*----------------------------------*\
  =========                 |
  \\      /  F ield         | OpenFOAM: The Open Source CFD Toolbox
   \\    /   O peration     | Website:  https://openfoam.org
    \\  /    A nd           | Version:  7
     \\/     M anipulation  |
\*---------------------------------------------------------------------------*/
FoamFile
{
    version     2.0;
    format      ascii;
    class       volScalarField;
    location    "2.9";
    object      T;
}
// * * * * * * * * * * * * * * * * * * * * * * * * * * * * * * * * * * * * * //

dimensions      [0 0 0 1 0 0 0];

internalField   nonuniform List<scalar> 
4608
(
1
1
1
1
1
1
1
1
1
1
1
1
1
1
1
1
1
1
1
1
1
1
1
1
1
1
1
1
1
1
1
1
1
1
1
1
1
1
1
1
1
1
1
1
1
1
1
1
1
1
1
1
1
1
1
1
1
1
1
1
1
1
1
1
1
1
1
1
1
1
1
1
1
1
1
1
1
1
1
1
1
1
1
1
1
1
1
1
1
1
1
1
1
1
1
1
1
1
1
1
1
1
1
1
1
1
1
1
1
1
1
1
1
1
1
1
1
1
1
1
1
1
1
1
1
1
1
1
1
1
1
1
1
1
1
1
1
1
1
1
1
1
1
1
1
1
1
1
1
1
1
1
1
1
1
1
1
1
1
1
1
1
1
1
1
1
1
1
1
1
1
1
1
1
1
1
1
1
1
1
1
1
1
1
1
1
1
1
1
1
1
1
1
1
1
1
1
1
1
1
1
1
1
1
1
1
1
1
1
1
1
1
1
1
1
1
1
1
1
1
1
1
1
1
1
1
1
1
1
1
1
1
1
1
1
1
1
1
1
1
1
1
1
1
1
1
1
1
1
1
1
1
1
1
1
1
1
1
1
1
1
1
1
1
1
1
1
1
1
1
1
1
1
1
1
1
1
1
1
1
1
1
1
1
1
1
1
1
1
1
1
1
1
1
1
1
1
1
1
1
1
1
1
1
1
1
1
1
1
1
1
1
1
1
1
1
1
1
1
1
1
1
1
1
1
1
1
1
1
1
1
1
1
1
1
1
1
1
1
1
1
1
1
1
1
1
1
1
1
1
1
1
1
1
1
1
1
1
1
1
1
1
1
1
1
1
1
1
1
1
1
1
1
1
1
1
1
1
1
1
1
1
1
1
1
1
1
1
1
1
1
1
1
1
1
1
1
1
1
1
1
1
1
1
1
1
1
1
1
1
1
1
1
1
1
1
1
1
1
1
1
1
1
1
1
1
1
1
1
1
1
1
1
1
1
1
1
1
1
1
1
1
1
1
1
1
1
1
1
1
1
1
1
1
1
1
1
1
1
1
1
1
1
1
1
1
1
1
1
1
1
1
1
1
1
1
1
1
1
1
1
1
1
1
1
1
1
1
1
1
1
1
1
1
1
1
1
1
1
1
1
1
1
1
1
1
1
1
1
1
1
1
1
1
1
1
1
1
1
1
1
1
1
1
1
1
1
1
1
1
1
1
1
1
1
1
1
1
1
1
1
1
1
1
1
1
1
1
1
1
1
1
1
1
1
1
1
1
1
1
1
1
1
1
1
1
1
1
1
1
1
1
1
1
1
1
1
1
1
1
1
1
1
1
1
1
1
1
1
1
1
1
1
1
1
1
1
1
1
1
1
1
1
1
1
1
1
1
1
1
1
1
1
1
1
1
1
1
1
1
1
1
1
1
1
1
1
1
1
1
1
1
1
1
1
1
1
1
1
1
1
1
1
1
1
1
1
1
1
1
1
1
1
1
1
1
1
1
1
1
1
1
1
1
1
1
1
1
1
1
1
1
1
1
1
1
1
1
1
1
1
1
1
1
1
1
1
1
1
1
1
1
1
1
1
1
1
1
1
1
1
1
1
1
1
1
1
1
1
1
1
1
1
1
1
1
1
1
1
1
1
1
1
1
1
1
1
1
1
1
1
1
1
1
1
1
1
1
1
1
1
1
1
1
1
1
1
1
1
1
1
1
1
1
1
1
1
1
1
1
1
1
1
1
1
1
1
1
1.07807
1.18248
1.2893
1.38914
1.48796
1.5699
1.63649
1.68492
1.69814
1.6812
1.63741
1.58589
1.53889
1.52537
1.51508
1.51584
1.51917
1.52324
1.52762
1.53185
1.53612
1.5382
1.53853
1.53929
1.00101
1.0058
1.0288
1.07358
1.14369
1.23305
1.32089
1.40992
1.47934
1.51729
1.54761
1.56604
1.55827
1.55165
1.54487
1.53812
1.534
1.53053
1.53074
1.53322
1.53689
1.53967
1.54047
1.54133
1
0.999983
1.00005
1.00012
1.00119
1.00855
1.03648
1.11767
1.26845
1.45352
1.56631
1.62285
1.62239
1.61063
1.5914
1.56656
1.55055
1.53909
1.53606
1.53821
1.54164
1.5456
1.54763
1.54923
1
0.999999
0.999999
0.999999
0.999995
1.00001
0.999968
1.00066
1.01266
1.10729
1.30663
1.50022
1.61792
1.6071
1.59902
1.5971
1.58725
1.56836
1.55568
1.55479
1.55531
1.55709
1.55937
1.56225
1
1
1
1
1
1
0.999997
0.999997
0.999964
1.00041
1.01724
1.12167
1.35954
1.51726
1.62133
1.62842
1.62283
1.60717
1.59256
1.5813
1.57471
1.57107
1.57102
1.57284
1
1
1
1
1
1
1
1
0.999997
0.999997
0.999964
1.0009
1.02948
1.17772
1.40479
1.54299
1.60123
1.61036
1.6045
1.59573
1.58997
1.58415
1.57744
1.57764
1
1
1
1
1
1
1
1
1
1
0.999998
0.999994
1
1.00361
1.0544
1.24716
1.47168
1.57862
1.59349
1.59524
1.59455
1.59046
1.58383
1.57987
1
1
1
1
1
1
1
1
1
1
1
0.999999
0.999999
0.999989
1.00027
1.01428
1.11964
1.34637
1.51999
1.59003
1.59909
1.59606
1.58867
1.58275
1
1
1
1
1
1
1
1
1
1
1
1
1
0.999998
0.999999
0.999999
1.00222
1.05292
1.22603
1.43329
1.54704
1.58878
1.58821
1.58289
1
1
1
1
1
1
1
1
1
1
1
1
1
1
1
1
0.999993
1.00056
1.01369
1.1373
1.3485
1.5315
1.55717
1.56886
1
1
1
1
1
1
1
1
1
1
1
1
1
1
1
1
0.999999
0.999997
1.00003
1.00586
1.0653
1.28342
1.46457
1.54889
1
1
1
1
1
1
1
1
1
1
1
1
1
1
1
1
1
1
0.999999
1.00001
1.00145
1.03772
1.21879
1.41462
1
1
1
1
1
1
1
1
1
1
1
1
1
1
1
1
1
1
1
1
0.999999
1.00063
1.02366
1.14798
1
1
1
1
1
1
1
1
1
1
1
1
1
1
1
1
1
1
1
1
1
0.999999
1.00033
1.00961
1
1
1
1
1
1
1
1
1
1
1
1
1
1
1
1
1
1
1
1
1
1
0.999999
1.00001
1
1
1
1
1
1
1
1
1
1
1
1
1
1
1
1
1
1
1
1
1
1
1
0.999998
1
1
1
1
1
1
1
1
1
1
1
1
1
1
1
1
1
1
1
1
1
1
1
0.999995
1
1
1
1
1
1
1
1
1
1
1
1
1
1
1
1
1
1
1
1
1
1
1
0.99999
1
1
1
1
1
1
1
1
1
1
1
1
1
1
1
1
1
1
1
1
1
0.999999
1.00037
1.00885
1
1
1
1
1
1
1
1
1
1
1
1
1
1
1
1
1
1
1
1
0.999999
1.00073
1.02233
1.15905
1
1
1
1
1
1
1
1
1
1
1
1
1
1
1
1
1
0.999999
0.999999
1.00001
1.00135
1.03852
1.21183
1.44444
1
1
1
1
1
1
1
1
1
1
1
1
1
1
1
1
0.999999
0.999997
1.00003
1.0061
1.06551
1.27792
1.4686
1.55626
1
1
1
1
1
1
1
1
1
1
1
1
1
1
1
1
0.999993
1.00057
1.01358
1.13959
1.34726
1.52895
1.56114
1.57107
1
1
1
1
1
1
1
1
1
1
1
1
1
0.999998
0.999999
0.999999
1.00221
1.05282
1.2261
1.43535
1.54372
1.58888
1.58973
1.58419
1
1
1
1
1
1
1
1
1
1
1
0.999999
0.999999
0.999989
1.00027
1.01435
1.11958
1.34533
1.52129
1.58998
1.59876
1.59581
1.58944
1.5832
1
1
1
1
1
1
1
1
1
1
0.999998
0.999994
1
1.00362
1.05435
1.24753
1.47136
1.57826
1.59396
1.59531
1.59454
1.5904
1.58382
1.57985
1
1
1
1
1
1
1
1
0.999997
0.999997
0.999964
1.0009
1.02949
1.17768
1.40487
1.54316
1.60098
1.61033
1.60471
1.59586
1.58979
1.58393
1.57737
1.57758
1
1
1
1
1
1
0.999997
0.999997
0.999964
1.00041
1.01723
1.12168
1.35953
1.51718
1.62144
1.62841
1.62282
1.6071
1.59259
1.5813
1.57465
1.57111
1.571
1.57282
1
0.999999
0.999999
0.999999
0.999995
1.00001
0.999968
1.00066
1.01266
1.1073
1.30661
1.50023
1.61788
1.60708
1.59906
1.59715
1.58726
1.56825
1.55569
1.55479
1.55531
1.55712
1.55938
1.56223
1
0.999983
1.00005
1.00012
1.00119
1.00855
1.03648
1.11766
1.26846
1.4535
1.56632
1.62285
1.62239
1.61063
1.59141
1.56659
1.55053
1.53905
1.53612
1.53822
1.54161
1.54557
1.54764
1.54922
1.00101
1.0058
1.0288
1.07359
1.14368
1.23306
1.32088
1.40991
1.47935
1.51728
1.54761
1.56605
1.55828
1.55164
1.54488
1.53811
1.53398
1.53055
1.53076
1.53322
1.53687
1.53967
1.54048
1.54133
1.07807
1.18248
1.28931
1.38913
1.48797
1.56991
1.63647
1.68492
1.69815
1.68121
1.63741
1.58589
1.53889
1.52535
1.51508
1.51583
1.51915
1.52325
1.52764
1.53185
1.53611
1.53821
1.53854
1.53929
1.39747
1.23712
1.09206
1.00991
1.01479
1.01193
0.991099
0.997845
1.02605
1.05214
1.06929
1.09438
1.10937
1.1089
1.10246
1.10063
1.10497
1.11021
1.11597
1.11818
1.1177
1.11254
1.10384
1.12203
1.26325
1.52313
1.75859
1.97919
2.13946
2.18217
2.13613
2.05959
2.00234
1.9752
1.95823
1.93628
1.90833
1.88282
1.86266
1.84497
1.82837
1.81214
1.79544
1.77845
1.76111
1.7415
1.71746
1.69226
1.67227
1.65752
1.64635
1.63684
1.62754
1.61706
1.60424
1.58821
1.57141
1.55634
1.54265
1.52938
1.51547
1.50158
1.48886
1.47761
1.46774
1.45805
1.45006
1.4413
1.4297
1.41788
1.40717
1.41136
1.44099
1.50916
1.62315
1.72681
1.80726
1.87293
1.89946
1.89107
1.86895
1.83413
1.80823
1.79096
1.78267
1.77832
1.77359
1.7678
1.76246
1.75608
1.74546
1.72735
1.70709
1.69911
1.69592
1.68839
1.49401
1.41785
1.3272
1.22374
1.1844
1.15572
1.09576
1.06382
1.06187
1.05768
1.05257
1.05582
1.06235
1.06333
1.06264
1.06537
1.07392
1.08248
1.08993
1.09478
1.09393
1.09558
1.1184
1.26824
1.49144
1.55579
1.6283
1.72698
1.86117
1.96527
2.03863
2.04131
2.01807
1.99111
1.96588
1.93953
1.91081
1.88791
1.87052
1.85294
1.83531
1.81895
1.80276
1.78623
1.76847
1.7477
1.72281
1.69803
1.68145
1.66949
1.65764
1.6461
1.63556
1.62496
1.61248
1.59689
1.58022
1.56529
1.55234
1.54006
1.52716
1.5133
1.49939
1.48685
1.47572
1.46554
1.45716
1.44896
1.43855
1.43344
1.44193
1.47898
1.53649
1.58978
1.63089
1.68093
1.72909
1.78538
1.82541
1.83337
1.83749
1.82962
1.81477
1.79705
1.78875
1.78382
1.77774
1.77132
1.76553
1.75909
1.7497
1.73295
1.71282
1.70411
1.70082
1.69328
1.53391
1.49125
1.43126
1.35365
1.27385
1.22661
1.17359
1.11517
1.0914
1.07253
1.04577
1.04005
1.04526
1.04336
1.04051
1.04133
1.04588
1.05222
1.06084
1.06728
1.07496
1.12092
1.2842
1.49682
1.58271
1.58598
1.58355
1.58721
1.62186
1.75517
1.92828
2.02296
2.03589
2.01638
1.97124
1.93615
1.9117
1.89161
1.87089
1.84789
1.82548
1.80614
1.78979
1.77421
1.75765
1.7385
1.71773
1.70033
1.68434
1.66798
1.65208
1.63708
1.62308
1.61006
1.59732
1.5836
1.57024
1.55846
1.54709
1.53511
1.52249
1.50812
1.49239
1.47692
1.46383
1.45436
1.44784
1.44396
1.44696
1.46761
1.5176
1.58436
1.62961
1.64944
1.64422
1.64212
1.65267
1.68728
1.7382
1.78671
1.81546
1.82917
1.8226
1.80507
1.79411
1.78724
1.78272
1.77622
1.7692
1.76087
1.74913
1.73053
1.70978
1.70098
1.69768
1.69032
1.55582
1.53482
1.49485
1.44146
1.36559
1.30625
1.26621
1.2063
1.1615
1.14
1.10465
1.0677
1.06543
1.06239
1.05185
1.04294
1.04147
1.04017
1.04065
1.04508
1.1061
1.29462
1.50411
1.58598
1.58476
1.57788
1.56555
1.5504
1.5391
1.55512
1.65398
1.84242
1.98099
1.98056
1.97085
1.94599
1.92402
1.90082
1.87511
1.85022
1.82776
1.80714
1.78756
1.76947
1.75327
1.73882
1.72477
1.70979
1.69151
1.67325
1.6558
1.63897
1.6224
1.60596
1.59045
1.57731
1.56607
1.55672
1.54737
1.53608
1.52367
1.50934
1.49295
1.47629
1.46225
1.45744
1.45346
1.46053
1.50057
1.56739
1.63157
1.66887
1.67417
1.67123
1.65524
1.63442
1.62848
1.63222
1.65128
1.69173
1.74767
1.79545
1.80774
1.80187
1.7997
1.79637
1.79252
1.78419
1.7746
1.76485
1.75316
1.73391
1.71173
1.70166
1.69857
1.69168
1.56974
1.56154
1.53879
1.50128
1.4492
1.38326
1.33456
1.29316
1.24616
1.2043
1.16282
1.11684
1.09364
1.08834
1.0798
1.05846
1.04378
1.04164
1.04911
1.1193
1.32708
1.50085
1.58493
1.58718
1.57804
1.5601
1.54423
1.52736
1.51909
1.50841
1.51149
1.56617
1.73622
1.87681
1.95197
1.94659
1.92609
1.89766
1.87202
1.85109
1.83022
1.80905
1.78799
1.76585
1.74485
1.72766
1.71332
1.70334
1.6957
1.68357
1.66649
1.64452
1.62315
1.60706
1.59055
1.57174
1.55694
1.5487
1.54366
1.53961
1.53138
1.51893
1.50238
1.48571
1.47121
1.46869
1.48493
1.53904
1.61077
1.66818
1.69356
1.69429
1.68902
1.67815
1.66015
1.63786
1.62448
1.62175
1.62173
1.62955
1.66165
1.71476
1.76747
1.793
1.79975
1.79674
1.78821
1.77885
1.76862
1.75976
1.751
1.73744
1.72099
1.70608
1.69624
1.68802
1.57648
1.57357
1.56686
1.54407
1.50674
1.46122
1.40738
1.3532
1.31494
1.28042
1.24456
1.19045
1.14196
1.13365
1.13024
1.11201
1.08645
1.09349
1.18478
1.39022
1.54375
1.59642
1.59319
1.57945
1.56117
1.54481
1.52976
1.51428
1.50269
1.49142
1.47671
1.4642
1.48714
1.59673
1.76995
1.87719
1.89429
1.8909
1.873
1.85475
1.83396
1.80991
1.78501
1.76029
1.73912
1.72548
1.71445
1.70235
1.68766
1.67292
1.65877
1.64673
1.63093
1.60961
1.58722
1.56759
1.55525
1.5475
1.5384
1.52772
1.51808
1.50797
1.50155
1.49217
1.49593
1.52742
1.59162
1.65538
1.69604
1.71843
1.71852
1.71202
1.70211
1.68659
1.66278
1.63727
1.62598
1.6207
1.61623
1.61556
1.61971
1.63826
1.67861
1.7271
1.76242
1.77246
1.77425
1.77404
1.76959
1.76053
1.74963
1.7382
1.72691
1.71241
1.69941
1.6903
1.57966
1.57832
1.57592
1.56993
1.54861
1.5124
1.4727
1.42985
1.37093
1.32863
1.30657
1.2751
1.2312
1.17703
1.16189
1.15191
1.16794
1.27407
1.48997
1.62526
1.6373
1.62087
1.59377
1.57049
1.55402
1.53957
1.52366
1.5086
1.49525
1.48034
1.46126
1.44608
1.42357
1.42407
1.47738
1.6338
1.77477
1.85124
1.86719
1.85885
1.83884
1.81177
1.78265
1.75679
1.7355
1.72056
1.70914
1.69574
1.6821
1.67035
1.65928
1.64505
1.62503
1.60068
1.58052
1.56955
1.55994
1.54864
1.53464
1.52284
1.51502
1.51099
1.51207
1.53059
1.58642
1.65774
1.7006
1.71846
1.72992
1.72796
1.72022
1.71136
1.70041
1.68547
1.66159
1.63883
1.63009
1.62374
1.61737
1.61252
1.61024
1.61072
1.61775
1.63799
1.67204
1.71467
1.74368
1.76123
1.76465
1.75854
1.7478
1.73814
1.72901
1.71951
1.70867
1.69246
1.58181
1.58147
1.58058
1.57775
1.57035
1.55147
1.51666
1.48178
1.4421
1.39451
1.34013
1.32127
1.29623
1.25619
1.22225
1.25432
1.39701
1.58764
1.69899
1.69719
1.67308
1.63775
1.60455
1.58036
1.56066
1.54181
1.52184
1.50632
1.49043
1.47245
1.45349
1.43676
1.41642
1.39745
1.37925
1.39888
1.50092
1.66043
1.78289
1.82159
1.82124
1.80773
1.78276
1.7566
1.73318
1.71373
1.69979
1.68771
1.67651
1.66542
1.65391
1.63891
1.61912
1.59665
1.57819
1.56471
1.55315
1.54199
1.53174
1.52594
1.52287
1.53343
1.57698
1.6455
1.71577
1.74263
1.74923
1.74851
1.74239
1.73244
1.7221
1.7117
1.69995
1.68456
1.66165
1.6424
1.63343
1.6258
1.61759
1.61067
1.60609
1.60239
1.60119
1.59733
1.60018
1.62101
1.66586
1.7061
1.73503
1.74762
1.74525
1.74072
1.73592
1.72744
1.71446
1.69237
1.5831
1.58507
1.5857
1.58493
1.5818
1.57211
1.55298
1.51966
1.48676
1.44841
1.40585
1.36458
1.33078
1.31923
1.37535
1.55263
1.71873
1.77015
1.75767
1.72444
1.68766
1.65397
1.62414
1.59895
1.57593
1.55254
1.52685
1.50357
1.48306
1.46454
1.44818
1.4309
1.41254
1.39026
1.37214
1.35347
1.35412
1.40593
1.54859
1.69421
1.76802
1.77968
1.77471
1.75506
1.73009
1.70565
1.68715
1.67671
1.66781
1.65669
1.64422
1.62881
1.61068
1.5908
1.57334
1.5602
1.54946
1.54115
1.5341
1.53704
1.56398
1.63245
1.71317
1.76252
1.76807
1.7608
1.75535
1.74683
1.73768
1.72878
1.71931
1.70796
1.69526
1.67983
1.6611
1.6459
1.63539
1.62649
1.61818
1.61076
1.60382
1.59639
1.58895
1.58341
1.57484
1.57048
1.58458
1.62398
1.67427
1.71542
1.7363
1.7393
1.73606
1.72779
1.71395
1.68892
1.57376
1.57933
1.58251
1.58192
1.58042
1.57628
1.5671
1.54869
1.52185
1.48483
1.45218
1.40794
1.41624
1.51569
1.69664
1.83997
1.84802
1.82597
1.78707
1.74748
1.7098
1.67425
1.64135
1.61195
1.58589
1.5615
1.53733
1.51379
1.48976
1.46444
1.44214
1.42019
1.40122
1.38498
1.3709
1.3526
1.33704
1.324
1.34151
1.4343
1.58594
1.68734
1.73035
1.73141
1.71854
1.6987
1.67852
1.66423
1.65224
1.63956
1.62778
1.61499
1.60055
1.58455
1.56864
1.55502
1.54674
1.5432
1.55507
1.61186
1.69792
1.76953
1.80414
1.80364
1.78952
1.76183
1.74678
1.7391
1.73127
1.72302
1.71408
1.70289
1.68956
1.67435
1.65945
1.64675
1.63607
1.62634
1.61693
1.60795
1.59955
1.59073
1.58073
1.57137
1.56295
1.55736
1.55332
1.56158
1.59385
1.64639
1.69807
1.7158
1.71618
1.71419
1.70651
1.68337
1.57965
1.57953
1.57838
1.57704
1.57676
1.5747
1.57108
1.56339
1.54313
1.51707
1.48938
1.52625
1.68374
1.85165
1.91788
1.91103
1.8777
1.83829
1.80153
1.76643
1.73099
1.69455
1.65854
1.6249
1.59381
1.56422
1.53762
1.51521
1.49433
1.47134
1.44774
1.42362
1.40061
1.37918
1.36098
1.34677
1.33048
1.31518
1.3001
1.30143
1.34755
1.4725
1.60458
1.67862
1.69628
1.69147
1.67244
1.65144
1.63492
1.62048
1.6089
1.59782
1.5869
1.57472
1.56402
1.55209
1.55266
1.58223
1.65763
1.75563
1.8108
1.81303
1.80954
1.79751
1.77684
1.75894
1.74491
1.73442
1.72477
1.7151
1.70649
1.69627
1.68249
1.6675
1.65496
1.64447
1.63488
1.62516
1.61493
1.60472
1.59529
1.58592
1.57524
1.56318
1.55255
1.54714
1.54367
1.53892
1.54246
1.56714
1.61616
1.66323
1.68357
1.69262
1.69093
1.67372
1.53745
1.55994
1.57037
1.57601
1.57764
1.57564
1.57074
1.5658
1.55426
1.55909
1.6543
1.84071
1.97956
2.00591
1.98561
1.93697
1.88879
1.84747
1.81179
1.77758
1.74247
1.7063
1.67038
1.63638
1.60471
1.575
1.54798
1.52177
1.494
1.46753
1.44555
1.42695
1.40654
1.38529
1.36529
1.34705
1.32736
1.30774
1.2899
1.28099
1.27457
1.29236
1.37977
1.51531
1.6229
1.65311
1.6497
1.63584
1.61968
1.60654
1.59479
1.58485
1.57563
1.56865
1.56309
1.57229
1.62531
1.71124
1.78521
1.83366
1.83727
1.82831
1.80751
1.78446
1.76643
1.75338
1.74118
1.73031
1.71911
1.70758
1.69754
1.68736
1.67511
1.66189
1.64974
1.63947
1.6307
1.62223
1.61279
1.60194
1.59059
1.57968
1.5689
1.55835
1.5492
1.54092
1.53455
1.52937
1.52448
1.52638
1.54094
1.57471
1.61415
1.64731
1.66172
1.65776
1.36995
1.53281
1.55986
1.5626
1.56551
1.56609
1.56603
1.56999
1.61027
1.77095
1.98301
2.05597
2.04547
2.02022
1.98171
1.94129
1.90005
1.85886
1.8204
1.78501
1.75044
1.71456
1.67768
1.64178
1.60883
1.57934
1.55258
1.52727
1.50313
1.47982
1.45518
1.42941
1.40462
1.38426
1.36923
1.35291
1.33204
1.31108
1.29237
1.2761
1.26579
1.25812
1.26239
1.30928
1.42501
1.548
1.59901
1.60988
1.60392
1.59602
1.58151
1.57333
1.57121
1.58347
1.61906
1.69052
1.77386
1.81846
1.82866
1.82936
1.82377
1.81432
1.799
1.7795
1.7633
1.7494
1.73669
1.72571
1.71414
1.7019
1.69016
1.67872
1.66751
1.65645
1.64571
1.63608
1.62828
1.62111
1.61204
1.60025
1.58714
1.57461
1.56367
1.55457
1.54738
1.53973
1.53211
1.52453
1.51686
1.51371
1.5117
1.51683
1.53437
1.56919
1.60751
1.63418
1.11096
1.35584
1.49208
1.53492
1.55092
1.55884
1.59276
1.69908
1.88312
2.05203
2.12874
2.12196
2.07608
2.02392
1.98305
1.94558
1.90641
1.86539
1.82447
1.78631
1.75233
1.71983
1.68568
1.65066
1.61612
1.58366
1.55587
1.52927
1.50162
1.47654
1.45655
1.43826
1.41899
1.39617
1.36846
1.34914
1.3379
1.31926
1.2964
1.27812
1.26873
1.26173
1.24917
1.23954
1.25557
1.33438
1.46186
1.54027
1.57229
1.57184
1.56813
1.57402
1.61861
1.6938
1.76633
1.82901
1.86379
1.86054
1.846
1.82326
1.80639
1.79495
1.78521
1.77296
1.75986
1.74634
1.73236
1.72037
1.7086
1.696
1.68478
1.6749
1.66549
1.65542
1.64493
1.63447
1.62447
1.61578
1.60677
1.59702
1.58636
1.57501
1.56362
1.5531
1.54426
1.53701
1.52995
1.52253
1.51507
1.50828
1.5021
1.49675
1.49605
1.50517
1.53174
1.58948
1.00731
1.08817
1.29324
1.4639
1.54428
1.59864
1.78912
1.97284
2.09367
2.12311
2.12027
2.11244
2.08652
2.04173
1.99444
1.9498
1.90877
1.87043
1.83145
1.79054
1.75157
1.7165
1.68504
1.65504
1.62605
1.59654
1.5677
1.53829
1.50865
1.48292
1.4583
1.43456
1.41531
1.39797
1.37731
1.34926
1.32456
1.30864
1.29368
1.2827
1.27178
1.25899
1.24059
1.221
1.20525
1.20962
1.25888
1.36953
1.48715
1.55384
1.58183
1.65059
1.7664
1.83285
1.85744
1.86913
1.86587
1.85974
1.84436
1.82263
1.80235
1.78676
1.7766
1.76784
1.75868
1.74827
1.73585
1.72117
1.70622
1.69295
1.68245
1.67416
1.66631
1.65759
1.64805
1.63807
1.6274
1.61547
1.60269
1.59104
1.5819
1.57349
1.56484
1.55715
1.55004
1.54265
1.53582
1.52909
1.52194
1.51388
1.5033
1.48897
1.47659
1.47543
1.48103
1.52778
1.0001
1.00537
1.06238
1.26408
1.58895
1.76913
1.99038
2.1117
2.17656
2.16237
2.12534
2.10152
2.08529
2.05065
2.00365
1.95475
1.90846
1.86639
1.83424
1.80632
1.77147
1.73362
1.69702
1.66137
1.62767
1.59506
1.56063
1.53799
1.52396
1.50372
1.4782
1.45141
1.42677
1.40401
1.3797
1.34852
1.31849
1.31071
1.30883
1.30124
1.28675
1.26767
1.24271
1.21747
1.20264
1.19602
1.19831
1.22437
1.32949
1.5224
1.66054
1.78221
1.871
1.91185
1.91178
1.90342
1.87603
1.85054
1.83709
1.81957
1.80305
1.78746
1.7734
1.76517
1.75989
1.753
1.73655
1.71174
1.69344
1.68356
1.67718
1.67067
1.66391
1.65742
1.65108
1.64191
1.62498
1.60751
1.59908
1.59204
1.58388
1.57614
1.56883
1.56
1.54863
1.5376
1.52901
1.52294
1.51677
1.50891
1.49805
1.48393
1.47242
1.46898
1.46999
1.48797
1.00019
1.00388
1.05689
1.24064
1.52089
1.84497
2.00402
2.09113
2.17225
2.1533
2.11085
2.09338
2.07756
2.05139
2.01261
1.96685
1.92047
1.87833
1.83794
1.79636
1.75706
1.71799
1.68635
1.66452
1.63945
1.60822
1.57386
1.54041
1.51064
1.4875
1.46602
1.44159
1.42
1.40791
1.39185
1.36665
1.33699
1.31453
1.29863
1.28693
1.27313
1.25595
1.24066
1.22804
1.21329
1.19908
1.20061
1.23094
1.34136
1.50081
1.68798
1.81808
1.85754
1.89749
1.913
1.89786
1.86818
1.8438
1.83118
1.81756
1.80365
1.78971
1.77881
1.77148
1.76267
1.74914
1.73186
1.71068
1.68963
1.68126
1.67772
1.67518
1.66992
1.66444
1.65913
1.65008
1.63062
1.60626
1.59413
1.58734
1.58142
1.57566
1.56919
1.56097
1.55056
1.53917
1.52866
1.52164
1.51623
1.50839
1.49473
1.48212
1.47468
1.47028
1.47169
1.49044
1.01082
1.08627
1.27095
1.44779
1.50208
1.6663
1.8082
1.95977
2.07546
2.11718
2.11434
2.10351
2.07648
2.03514
1.99564
1.9583
1.9209
1.88202
1.83864
1.79414
1.75447
1.72024
1.6863
1.65057
1.6178
1.58887
1.56172
1.53322
1.50414
1.4804
1.46361
1.44761
1.42586
1.39814
1.37109
1.34995
1.33342
1.31455
1.29536
1.28107
1.26939
1.25542
1.2344
1.21857
1.21246
1.2171
1.26451
1.37766
1.49939
1.53103
1.59976
1.69346
1.7429
1.81145
1.85158
1.86819
1.86724
1.85783
1.84255
1.82478
1.80985
1.79863
1.78943
1.77794
1.76265
1.74474
1.72726
1.71022
1.69518
1.68526
1.67676
1.66937
1.6632
1.65808
1.65318
1.64579
1.6295
1.60479
1.59292
1.58892
1.58483
1.57992
1.5744
1.56759
1.5588
1.54776
1.53585
1.52605
1.51737
1.50599
1.49149
1.48153
1.4792
1.47903
1.48578
1.53073
1.14018
1.33252
1.48953
1.5485
1.54653
1.56018
1.59251
1.69122
1.87158
2.06
2.12189
2.11475
2.07132
2.02101
1.98854
1.95802
1.92015
1.87468
1.82744
1.78387
1.74578
1.71113
1.67732
1.64378
1.61188
1.58352
1.55905
1.5366
1.51356
1.48722
1.45858
1.43361
1.41379
1.39206
1.36621
1.34356
1.33034
1.31955
1.30614
1.28846
1.27027
1.25125
1.23487
1.22458
1.24159
1.32797
1.45028
1.55048
1.58319
1.57474
1.56951
1.57598
1.5974
1.66284
1.75514
1.83272
1.86913
1.86764
1.85172
1.82608
1.80871
1.79724
1.78722
1.77452
1.75806
1.74065
1.72727
1.7164
1.70614
1.69338
1.6807
1.67225
1.66606
1.66054
1.65366
1.64317
1.62746
1.60935
1.59464
1.58432
1.57818
1.57337
1.56834
1.56231
1.55473
1.54563
1.53441
1.52348
1.51347
1.50392
1.49261
1.48805
1.49128
1.5083
1.54472
1.60212
1.39823
1.49875
1.5506
1.57264
1.57333
1.56968
1.56954
1.57282
1.61175
1.78268
1.98814
2.04693
2.04383
2.024
1.99193
1.95327
1.90816
1.86016
1.81477
1.77469
1.73912
1.70503
1.67163
1.64034
1.6116
1.58461
1.55819
1.53217
1.50681
1.48082
1.45202
1.42326
1.39953
1.38413
1.36943
1.35048
1.33211
1.3165
1.30266
1.28556
1.2694
1.25246
1.25578
1.30388
1.41485
1.536
1.59918
1.61666
1.6147
1.60403
1.58074
1.56249
1.55899
1.56758
1.61144
1.69518
1.78932
1.83662
1.8351
1.83028
1.82323
1.811
1.79286
1.77277
1.75571
1.74225
1.73451
1.72929
1.72036
1.70587
1.69129
1.67973
1.6707
1.66201
1.65212
1.64049
1.62834
1.61584
1.6003
1.58654
1.57896
1.57442
1.56992
1.56438
1.55729
1.54821
1.53652
1.52423
1.51382
1.50469
1.50331
1.51107
1.53785
1.5824
1.63087
1.65458
1.5266
1.54434
1.5598
1.57473
1.58024
1.57847
1.57354
1.56735
1.55436
1.56033
1.65869
1.83572
1.98205
2.00979
1.9885
1.93916
1.88838
1.84375
1.80455
1.76811
1.7333
1.70009
1.66902
1.63922
1.60994
1.58209
1.5554
1.52827
1.50039
1.47289
1.44702
1.42258
1.39884
1.37896
1.36158
1.34679
1.33035
1.31467
1.30002
1.28955
1.27929
1.29567
1.38399
1.51554
1.61341
1.65185
1.6521
1.64273
1.62639
1.6082
1.59072
1.57371
1.56435
1.56348
1.56493
1.58222
1.64235
1.73483
1.79564
1.83156
1.833
1.8228
1.79974
1.77826
1.76394
1.75504
1.74633
1.73516
1.72275
1.71102
1.69928
1.68668
1.67494
1.66379
1.65296
1.64259
1.63241
1.62102
1.6076
1.59436
1.58507
1.57872
1.57258
1.56519
1.55678
1.54712
1.5374
1.52842
1.52025
1.51824
1.52857
1.56472
1.61299
1.65938
1.6794
1.67803
1.57892
1.57674
1.57514
1.57539
1.57665
1.57609
1.57204
1.56257
1.54142
1.51701
1.49011
1.52429
1.68181
1.85754
1.91974
1.90769
1.87291
1.83397
1.79626
1.75971
1.72499
1.69255
1.66158
1.63103
1.60107
1.57315
1.54776
1.52243
1.49673
1.47036
1.4448
1.4188
1.39287
1.37282
1.35834
1.34771
1.33437
1.32172
1.30883
1.30902
1.3514
1.47584
1.61158
1.6756
1.69274
1.68848
1.67322
1.65758
1.63989
1.62131
1.60509
1.59043
1.58101
1.57203
1.56659
1.56185
1.56509
1.59415
1.66582
1.74004
1.79769
1.80207
1.79814
1.79155
1.78001
1.76906
1.75566
1.74182
1.73021
1.71981
1.70628
1.69017
1.67541
1.66429
1.65526
1.64662
1.63763
1.62803
1.6181
1.60726
1.59369
1.58196
1.57317
1.56546
1.55792
1.54943
1.54446
1.53826
1.53947
1.55634
1.59725
1.64295
1.6749
1.69616
1.69905
1.69123
1.57407
1.57783
1.58136
1.58115
1.57978
1.57612
1.56703
1.54869
1.52184
1.48592
1.45358
1.4088
1.41632
1.5151
1.69319
1.82893
1.84694
1.82556
1.78653
1.74665
1.70993
1.67716
1.64719
1.61902
1.59196
1.56644
1.54185
1.51469
1.48608
1.458
1.43423
1.41273
1.39264
1.37675
1.36611
1.35276
1.34411
1.33313
1.34744
1.4366
1.57594
1.6869
1.72595
1.72761
1.71773
1.70172
1.68675
1.67299
1.65783
1.63976
1.6195
1.60108
1.58948
1.57942
1.57152
1.56277
1.55834
1.55232
1.56007
1.60024
1.68108
1.75021
1.79188
1.79828
1.79407
1.7795
1.76315
1.74919
1.7364
1.72263
1.7066
1.68939
1.67481
1.66658
1.65992
1.65274
1.64517
1.63748
1.62809
1.61272
1.59387
1.58032
1.57214
1.56642
1.56095
1.55661
1.55841
1.57112
1.59968
1.64092
1.68086
1.69937
1.70597
1.70577
1.70173
1.69072
1.58313
1.58404
1.58517
1.58408
1.58096
1.57166
1.55268
1.51936
1.48686
1.44884
1.40685
1.36542
1.33124
1.31937
1.37307
1.54464
1.71808
1.77216
1.7595
1.72616
1.68912
1.65675
1.62955
1.60432
1.57871
1.55384
1.52878
1.50215
1.47626
1.45557
1.43705
1.42028
1.40364
1.38739
1.3764
1.36198
1.36449
1.41571
1.55021
1.68652
1.74968
1.7712
1.76775
1.75076
1.73179
1.71487
1.70009
1.68645
1.67175
1.65299
1.63094
1.6113
1.5978
1.5871
1.57798
1.5688
1.55979
1.54958
1.53749
1.53146
1.55071
1.61746
1.70251
1.76141
1.77693
1.77702
1.7711
1.75946
1.74355
1.72401
1.70431
1.68646
1.67501
1.66985
1.66481
1.65852
1.65127
1.64355
1.63394
1.61686
1.59336
1.57877
1.57326
1.57023
1.56965
1.57544
1.60509
1.65563
1.69888
1.72269
1.73382
1.72916
1.71411
1.70362
1.69861
1.68921
1.58169
1.58135
1.58057
1.57765
1.5702
1.55147
1.51661
1.48147
1.44162
1.39415
1.34071
1.32197
1.2965
1.256
1.22227
1.2538
1.40039
1.5966
1.70173
1.69866
1.67503
1.64041
1.60853
1.58334
1.56024
1.54074
1.5224
1.5033
1.48041
1.46136
1.44295
1.42882
1.41287
1.39962
1.39157
1.41393
1.52358
1.67581
1.78218
1.80809
1.80255
1.78823
1.7717
1.7556
1.74191
1.72751
1.71218
1.69648
1.68036
1.66075
1.63923
1.62036
1.60571
1.5947
1.58551
1.57638
1.56644
1.55519
1.53942
1.51957
1.50781
1.51785
1.56342
1.64699
1.72056
1.76355
1.76702
1.76401
1.751
1.72599
1.70258
1.6844
1.67483
1.67037
1.66759
1.66372
1.65724
1.64821
1.63601
1.61837
1.59515
1.58055
1.57848
1.57936
1.59274
1.63391
1.69811
1.74655
1.75958
1.75958
1.75283
1.73398
1.71318
1.70245
1.69762
1.68929
1.57961
1.5784
1.57602
1.56995
1.54855
1.51241
1.4726
1.42956
1.37034
1.32892
1.30682
1.2753
1.23132
1.17701
1.1623
1.15259
1.16947
1.28225
1.49508
1.62494
1.64094
1.62483
1.59583
1.57223
1.55229
1.53704
1.52339
1.50764
1.48856
1.46996
1.4526
1.44129
1.42745
1.43128
1.49377
1.65249
1.80153
1.8585
1.85687
1.84468
1.81936
1.79571
1.77604
1.76055
1.74854
1.73727
1.72454
1.70792
1.68397
1.66001
1.64166
1.62712
1.61333
1.60044
1.59122
1.58556
1.57882
1.5675
1.54743
1.52043
1.49865
1.49134
1.49494
1.52392
1.5908
1.66899
1.72427
1.74012
1.73759
1.72513
1.70455
1.68886
1.67835
1.66985
1.66401
1.65928
1.65224
1.64337
1.63313
1.61874
1.59766
1.58745
1.59061
1.61129
1.65952
1.72102
1.7723
1.78367
1.78331
1.77807
1.76066
1.73425
1.71254
1.70301
1.69918
1.69286
1.57648
1.5736
1.5669
1.54407
1.50676
1.46117
1.40702
1.35318
1.31487
1.2802
1.2442
1.19044
1.14263
1.13417
1.13055
1.11212
1.08655
1.09474
1.1876
1.38924
1.54429
1.59822
1.59215
1.57377
1.55377
1.53802
1.52791
1.51613
1.50291
1.4866
1.4728
1.46392
1.48669
1.60564
1.77579
1.89519
1.90349
1.89231
1.86906
1.84369
1.82137
1.80125
1.78344
1.76944
1.75595
1.74281
1.72723
1.70471
1.67936
1.6572
1.64187
1.63028
1.61986
1.60958
1.59757
1.58648
1.5744
1.56103
1.54572
1.52679
1.50442
1.48673
1.48013
1.48044
1.49338
1.53984
1.61197
1.67933
1.70593
1.71152
1.70759
1.69779
1.68381
1.66965
1.65831
1.65178
1.64549
1.63865
1.63047
1.62228
1.61274
1.61864
1.64772
1.69594
1.74198
1.77875
1.7885
1.78741
1.78282
1.77296
1.75315
1.73023
1.71438
1.70665
1.70363
1.69559
1.56972
1.56153
1.53885
1.50134
1.44891
1.38326
1.33498
1.29316
1.24566
1.20397
1.16262
1.11701
1.0942
1.08879
1.08002
1.05834
1.04395
1.04161
1.04866
1.1214
1.3158
1.51778
1.58569
1.58057
1.56662
1.55206
1.54351
1.53205
1.52245
1.50993
1.51361
1.57335
1.73651
1.88623
1.948
1.94426
1.92391
1.89216
1.86363
1.84263
1.82426
1.80613
1.7888
1.77516
1.76275
1.74599
1.72371
1.69925
1.6786
1.66206
1.6473
1.63212
1.6181
1.61155
1.60528
1.59358
1.57781
1.56031
1.54456
1.52979
1.51243
1.49242
1.47854
1.47227
1.47141
1.47818
1.50106
1.55494
1.61782
1.66773
1.68975
1.69011
1.68213
1.66771
1.65354
1.64326
1.63583
1.63336
1.63127
1.63865
1.66116
1.70404
1.75356
1.77904
1.79482
1.79809
1.79012
1.77875
1.76802
1.7569
1.74105
1.72555
1.71901
1.71514
1.71057
1.69909
1.55576
1.53478
1.49501
1.44122
1.36533
1.30688
1.26627
1.20557
1.16198
1.14041
1.10385
1.06784
1.06575
1.06244
1.05173
1.04296
1.04165
1.04028
1.04062
1.04525
1.1024
1.29443
1.52354
1.57104
1.57834
1.57564
1.56738
1.55235
1.54324
1.561
1.66622
1.8559
1.97952
1.97778
1.96332
1.93638
1.91254
1.88931
1.86683
1.85029
1.8348
1.81732
1.7999
1.78097
1.75882
1.73686
1.71472
1.69378
1.67862
1.66656
1.65428
1.64203
1.62995
1.61476
1.59731
1.58165
1.56789
1.55532
1.54342
1.53031
1.51614
1.50106
1.48858
1.47933
1.46919
1.46182
1.45585
1.46321
1.50124
1.56655
1.63428
1.66366
1.67067
1.66674
1.65406
1.63881
1.63419
1.63663
1.65506
1.70005
1.7492
1.79698
1.81059
1.80835
1.80453
1.79629
1.78586
1.77379
1.75903
1.7439
1.73129
1.72708
1.72452
1.72084
1.71575
1.70446
1.53387
1.49129
1.43127
1.35316
1.27432
1.22702
1.17299
1.1154
1.09206
1.07247
1.04544
1.04024
1.04529
1.04309
1.04037
1.0414
1.04607
1.05242
1.061
1.06725
1.07502
1.11766
1.30449
1.49816
1.57772
1.58413
1.58297
1.58651
1.6245
1.76316
1.94215
2.02489
2.02905
2.00531
1.95883
1.92584
1.90792
1.89173
1.87319
1.85369
1.83236
1.81169
1.79275
1.77418
1.75389
1.73253
1.71152
1.69461
1.68326
1.67211
1.65936
1.64437
1.62656
1.60816
1.59143
1.57686
1.56466
1.55332
1.54271
1.53246
1.52306
1.51256
1.49722
1.47835
1.46422
1.45385
1.44551
1.44153
1.44363
1.46456
1.52514
1.58726
1.63518
1.64922
1.64414
1.64193
1.65166
1.67821
1.72543
1.78158
1.81447
1.83225
1.83135
1.82515
1.81225
1.79592
1.78139
1.765
1.7504
1.73854
1.72948
1.72526
1.72278
1.71989
1.71516
1.70281
1.49404
1.41798
1.32644
1.22384
1.18566
1.15573
1.09433
1.06443
1.06216
1.05771
1.05258
1.05604
1.06232
1.06301
1.06242
1.06539
1.07413
1.08275
1.09005
1.09481
1.09385
1.09543
1.12267
1.28746
1.48216
1.55175
1.62918
1.72599
1.86559
1.97517
2.04658
2.03804
2.01122
1.98122
1.95681
1.93665
1.91953
1.90296
1.88549
1.86534
1.8417
1.81645
1.79205
1.77077
1.75302
1.7372
1.72239
1.71089
1.69977
1.68686
1.67184
1.65407
1.63261
1.60825
1.59043
1.57941
1.56965
1.56086
1.55371
1.547
1.53934
1.52877
1.51125
1.48607
1.46407
1.45231
1.44442
1.43681
1.43063
1.43255
1.44689
1.48934
1.54999
1.61058
1.64094
1.68047
1.7317
1.76409
1.79851
1.8166
1.83293
1.83551
1.82907
1.81846
1.80673
1.79531
1.77929
1.75817
1.74455
1.73872
1.7352
1.7323
1.7293
1.72489
1.71961
1.70548
1.39752
1.23695
1.09138
1.01185
1.01558
1.01086
0.989841
0.997744
1.02675
1.05221
1.06939
1.09494
1.1093
1.10863
1.10219
1.10075
1.10522
1.1104
1.11604
1.11818
1.11765
1.11228
1.10462
1.12659
1.25052
1.50288
1.75559
1.9835
2.14204
2.18625
2.13751
2.05474
1.99343
1.96675
1.95147
1.93342
1.91548
1.89734
1.8788
1.85842
1.83491
1.81031
1.78619
1.76364
1.74377
1.72687
1.71412