/*--------------------------------*- C++ -*----------------------------------*\
  =========                 |
  \\      /  F ield         | OpenFOAM: The Open Source CFD Toolbox
   \\    /   O peration     | Website:  https://openfoam.org
    \\  /    A nd           | Version:  7
     \\/     M anipulation  |
\*---------------------------------------------------------------------------*/
FoamFile
{
    version     2.0;
    format      ascii;
    class       volVectorField;
    location    "2.9";
    object      U;
}
// * * * * * * * * * * * * * * * * * * * * * * * * * * * * * * * * * * * * * //

dimensions      [0 1 -1 0 0 0 0];

internalField   nonuniform List<vector> 
4608
(
(3 2.25104e-17 0)
(3 -5.52049e-17 0)
(3 -8.37644e-17 0)
(3 -4.23634e-16 0)
(3 -6.72796e-16 0)
(3 -7.21748e-17 0)
(3 3.95058e-16 0)
(3 1.17389e-15 0)
(3 1.4786e-15 0)
(3 1.29098e-15 0)
(3 1.42255e-15 0)
(3 1.73816e-15 0)
(3 1.45433e-15 0)
(3 9.23468e-16 0)
(3 5.26662e-16 0)
(3 1.35514e-15 0)
(3 1.33936e-15 0)
(3 1.0774e-15 0)
(3 5.57183e-16 0)
(3 -3.20613e-16 0)
(3 1.78168e-16 0)
(3 7.32283e-16 0)
(3 1.0186e-15 0)
(3 -1.01916e-16 0)
(3 5.89282e-17 0)
(3 2.65495e-16 0)
(3 1.20834e-16 0)
(3 -4.34069e-16 0)
(3 -8.27341e-16 0)
(3 -2.54461e-16 0)
(3 9.56342e-16 0)
(3 1.95871e-15 0)
(3 2.25693e-15 0)
(3 1.50783e-15 0)
(3 1.75607e-15 0)
(3 1.88605e-15 0)
(3 1.91841e-15 0)
(3 1.30488e-15 0)
(3 1.54556e-16 0)
(3 1.02976e-15 0)
(3 9.90482e-16 0)
(3 8.83046e-16 0)
(3 -1.4351e-15 0)
(3 -2.30588e-15 0)
(3 -1.61967e-15 0)
(3 9.38309e-16 0)
(3 1.20429e-15 0)
(3 6.40161e-16 0)
(3 -1.03631e-16 0)
(3 2.23805e-18 0)
(3 -3.62691e-17 0)
(3 5.78536e-17 0)
(3 1.93849e-16 0)
(3 2.99276e-17 0)
(3 1.40873e-16 0)
(3 5.03356e-16 0)
(3 1.54285e-15 0)
(3 2.26889e-15 0)
(3 3.11142e-15 0)
(3 1.68409e-15 0)
(3 1.1852e-15 0)
(3 4.62759e-16 0)
(3 -7.32849e-16 0)
(3 -5.10115e-16 0)
(3 -2.16508e-16 0)
(3 -4.2437e-16 0)
(3 -1.15514e-15 0)
(3 -1.6462e-15 0)
(3 -1.67079e-15 0)
(3 -6.19037e-16 0)
(3 5.90346e-16 0)
(3 3.52619e-16 0)
(3 -5.63916e-17 0)
(3 -4.36891e-16 0)
(3 -1.27318e-16 0)
(3 3.02886e-16 0)
(3 4.40014e-16 0)
(3 2.32519e-16 0)
(3 1.02986e-16 0)
(3 1.0016e-16 0)
(3 4.60548e-16 0)
(3 2.17263e-15 0)
(3 3.13804e-15 0)
(3 1.55304e-15 0)
(3 8.25186e-16 0)
(3 -5.54639e-16 0)
(3 -1.38434e-15 0)
(3 -1.12879e-15 0)
(3 -8.30717e-16 0)
(3 -9.88484e-16 0)
(3 -4.97993e-16 0)
(3 -6.44716e-16 0)
(3 -1.41078e-15 0)
(3 -1.30973e-15 0)
(3 -2.1232e-16 0)
(3 6.09849e-16 0)
(3 1.63275e-16 0)
(3 2.54674e-16 0)
(3 2.70989e-16 0)
(3 4.89044e-16 0)
(3 5.25079e-16 0)
(3 7.37495e-16 0)
(3 1.04908e-15 0)
(3 8.38248e-16 0)
(3 7.2285e-16 0)
(3 1.13201e-15 0)
(3 8.06128e-16 0)
(3 5.66768e-16 0)
(3 3.83166e-16 0)
(3 -9.02479e-16 0)
(3 -8.57883e-16 0)
(3 -6.52928e-16 0)
(3 -2.10156e-16 0)
(3 1.46405e-16 0)
(3 -8.37605e-16 0)
(3 -1.3762e-15 0)
(3 -1.21519e-15 0)
(3 -9.89498e-16 0)
(3 -4.91805e-16 0)
(3 1.59416e-15 0)
(3 2.7815e-17 0)
(3 1.3854e-16 0)
(3 -1.20658e-16 0)
(3 -1.74172e-16 0)
(3 1.10943e-17 0)
(3 3.73263e-16 0)
(3 1.23793e-15 0)
(3 1.47759e-15 0)
(3 1.38097e-15 0)
(3 4.244e-16 0)
(3 2.64307e-17 0)
(3 -1.06365e-15 0)
(3 -1.795e-15 0)
(3 -1.78429e-15 0)
(3 -6.68466e-16 0)
(3 1.36171e-16 0)
(3 8.20157e-16 0)
(3 8.24829e-16 0)
(3 -2.42791e-16 0)
(3 -6.36288e-16 0)
(3 -7.08789e-16 0)
(3 -6.67323e-16 0)
(3 -2.01859e-16 0)
(3 9.36125e-16 0)
(3 1.40983e-16 0)
(3 2.25135e-16 0)
(3 1.86958e-16 0)
(3 1.19187e-16 0)
(3 -1.91439e-16 0)
(3 -1.03602e-17 0)
(3 1.49211e-16 0)
(3 5.71704e-16 0)
(3 -8.1022e-17 0)
(3 -1.16795e-15 0)
(3 -1.73419e-15 0)
(3 -2.03053e-15 0)
(3 -1.91842e-15 0)
(3 -9.40488e-16 0)
(3 -2.60514e-16 0)
(3 3.56761e-16 0)
(3 7.64651e-16 0)
(3 4.83325e-16 0)
(3 2.13721e-16 0)
(3 2.62778e-16 0)
(3 -1.16679e-15 0)
(3 -1.47006e-15 0)
(3 -7.99023e-16 0)
(3 4.87025e-17 0)
(3 1.36073e-16 0)
(3 4.77821e-16 0)
(3 3.44899e-16 0)
(3 -3.74259e-16 0)
(3 -7.6578e-16 0)
(3 -7.23606e-16 0)
(3 -1.80785e-15 0)
(3 -1.67558e-15 0)
(3 -1.81603e-15 0)
(3 -1.75593e-15 0)
(3 -2.07724e-15 0)
(3 -1.73289e-15 0)
(3 -5.44676e-16 0)
(3 1.8625e-16 0)
(3 8.35084e-17 0)
(3 2.3389e-16 0)
(3 7.39629e-16 0)
(3 9.06896e-16 0)
(3 9.35927e-16 0)
(3 1.18699e-15 0)
(3 5.36133e-16 0)
(3 -2.93597e-16 0)
(3 -1.18899e-16 0)
(3 -2.16519e-16 0)
(3 -1.98348e-16 0)
(3 -8.01858e-16 0)
(3 -1.00266e-15 0)
(3 -1.42237e-15 0)
(3 -1.23033e-15 0)
(3 -1.18905e-15 0)
(3 -1.10735e-15 0)
(3 -8.94274e-16 0)
(3 -6.02792e-16 0)
(3 -1.15777e-15 0)
(3 -2.09054e-15 0)
(3 -1.65387e-15 0)
(3 -1.50919e-15 0)
(3 -7.71193e-16 0)
(3 -1.45047e-16 0)
(3 -4.84715e-17 0)
(3 3.88195e-16 0)
(3 9.36925e-16 0)
(3 8.43806e-16 0)
(3 7.12587e-16 0)
(3 9.14256e-16 0)
(3 7.61355e-16 0)
(3 -1.48603e-16 0)
(3 -6.6016e-16 0)
(3 -1.17802e-16 0)
(3 -4.52344e-16 0)
(3 -4.82403e-16 0)
(3 -1.55633e-16 0)
(3 -3.9738e-16 0)
(3 -7.89228e-16 0)
(3 -5.64067e-16 0)
(3 -1.02327e-16 0)
(3 2.8337e-17 0)
(3 -3.05448e-16 0)
(3 -1.07249e-15 0)
(3 -4.9853e-16 0)
(3 -1.41653e-16 0)
(3 -2.90166e-16 0)
(3 5.31809e-16 0)
(3 9.72776e-16 0)
(3 3.08557e-16 0)
(3 9.22414e-17 0)
(3 -5.69484e-17 0)
(3 3.60265e-17 0)
(3 3.97843e-16 0)
(3 3.30034e-16 0)
(3 -4.99113e-17 0)
(3 -1.06125e-15 0)
(3 2.47481e-17 0)
(3 7.99966e-17 0)
(3 2.45224e-16 0)
(3 2.11136e-16 0)
(3 -5.24309e-17 0)
(3 -7.96976e-17 0)
(3 -1.9952e-16 0)
(3 -1.61604e-16 0)
(3 1.01655e-16 0)
(3 4.70193e-16 0)
(3 9.19487e-16 0)
(3 1.70927e-15 0)
(3 1.96679e-15 0)
(3 1.56743e-15 0)
(3 1.31837e-15 0)
(3 1.01045e-15 0)
(3 1.97494e-16 0)
(3 -1.41784e-16 0)
(3 2.27758e-17 0)
(3 1.95021e-16 0)
(3 6.57979e-17 0)
(3 6.73438e-18 0)
(3 4.40607e-16 0)
(3 4.63426e-16 0)
(3 -3.59668e-17 0)
(3 -2.95593e-16 0)
(3 -3.94225e-16 0)
(3 -3.91739e-16 0)
(3 3.18365e-16 0)
(3 9.49056e-16 0)
(3 8.35507e-16 0)
(3 6.81784e-16 0)
(3 6.0244e-16 0)
(3 3.95621e-16 0)
(3 1.30103e-15 0)
(3 1.80166e-15 0)
(3 2.12917e-15 0)
(3 2.65239e-15 0)
(3 1.7541e-15 0)
(3 1.14014e-15 0)
(3 -3.94197e-16 0)
(3 -4.0907e-16 0)
(3 -1.30664e-16 0)
(3 -1.58201e-16 0)
(3 -8.70004e-17 0)
(3 4.42481e-16 0)
(3 5.971e-16 0)
(3 1.20605e-15 0)
(3 -9.44385e-19 0)
(3 1.01692e-17 0)
(3 3.39131e-17 0)
(3 1.04111e-16 0)
(3 2.96059e-16 0)
(3 1.27377e-16 0)
(3 5.45364e-16 0)
(3 5.84989e-16 0)
(3 1.11365e-15 0)
(3 8.24676e-16 0)
(3 3.54673e-16 0)
(3 1.60793e-15 0)
(3 2.24342e-15 0)
(3 2.69e-15 0)
(3 1.58456e-15 0)
(3 -9.49082e-16 0)
(3 -1.72681e-15 0)
(3 -2.53375e-15 0)
(3 -1.67108e-15 0)
(3 -7.99732e-16 0)
(3 -3.38264e-16 0)
(3 5.66591e-16 0)
(3 1.40734e-15 0)
(3 1.89473e-15 0)
(3 3.88459e-17 0)
(3 3.94659e-16 0)
(3 9.40583e-16 0)
(3 8.13207e-16 0)
(3 1.75307e-16 0)
(3 9.85684e-17 0)
(3 2.33454e-16 0)
(3 2.68566e-17 0)
(3 1.03446e-16 0)
(3 4.52051e-16 0)
(3 1.49902e-16 0)
(3 6.41114e-16 0)
(3 8.25599e-16 0)
(3 7.92784e-16 0)
(3 2.47895e-16 0)
(3 -7.89121e-16 0)
(3 -2.48603e-15 0)
(3 -3.18187e-15 0)
(3 -1.68041e-15 0)
(3 -1.33748e-15 0)
(3 -9.64264e-16 0)
(3 -2.51571e-17 0)
(3 7.78907e-16 0)
(3 9.99234e-16 0)
(3 -1.2938e-17 0)
(3 1.74097e-16 0)
(3 3.90289e-16 0)
(3 9.85286e-17 0)
(3 -2.25677e-17 0)
(3 2.79777e-16 0)
(3 1.52358e-16 0)
(3 -2.03708e-16 0)
(3 -9.56522e-16 0)
(3 -6.02295e-16 0)
(3 -1.13617e-16 0)
(3 -7.24225e-16 0)
(3 -1.62829e-15 0)
(3 -2.30023e-15 0)
(3 -1.15661e-15 0)
(3 -3.42211e-16 0)
(3 -7.30725e-16 0)
(3 -1.41968e-15 0)
(3 -1.35774e-15 0)
(3 -9.15601e-16 0)
(3 -3.65118e-16 0)
(3 -2.02616e-16 0)
(3 3.71058e-17 0)
(3 1.93726e-16 0)
(3 -6.42768e-17 0)
(3 -2.66985e-17 0)
(3 -2.35503e-16 0)
(3 -5.6319e-16 0)
(3 -4.16591e-16 0)
(3 -3.75271e-16 0)
(3 -4.8804e-16 0)
(3 -6.15009e-16 0)
(3 -5.26775e-16 0)
(3 -6.22607e-16 0)
(3 -6.58131e-16 0)
(3 -1.27466e-15 0)
(3 -1.92137e-15 0)
(3 -2.05214e-15 0)
(3 -1.66113e-15 0)
(3 -1.29987e-15 0)
(3 -8.86626e-16 0)
(3 -1.05321e-15 0)
(3 -3.15648e-16 0)
(3 9.22929e-16 0)
(3 1.36853e-15 0)
(3 -1.14316e-17 0)
(3 -8.97501e-16 0)
(3 -1.07476e-15 0)
(3 1.82881e-17 0)
(3 8.11217e-18 0)
(3 -4.33002e-16 0)
(3 -7.13839e-16 0)
(3 -6.89327e-16 0)
(3 -4.03437e-16 0)
(3 -6.42696e-16 0)
(3 -7.08045e-16 0)
(3 -9.62454e-16 0)
(3 -1.13922e-15 0)
(3 -1.49633e-15 0)
(3 -2.11966e-15 0)
(3 -2.51933e-15 0)
(3 -2.46649e-15 0)
(3 -2.06459e-15 0)
(3 -8.70306e-16 0)
(3 3.24374e-16 0)
(3 9.11802e-16 0)
(3 1.94509e-15 0)
(3 1.99194e-15 0)
(3 4.74998e-16 0)
(3 -6.61444e-16 0)
(3 -9.76987e-16 0)
(3 -2.04722e-15 0)
(3 -3.53317e-17 0)
(3 9.78818e-17 0)
(3 3.507e-16 0)
(3 4.81297e-16 0)
(3 3.07588e-16 0)
(3 4.69005e-16 0)
(3 4.83366e-16 0)
(3 -5.73239e-17 0)
(3 -1.1425e-15 0)
(3 -2.22329e-15 0)
(3 -3.05799e-15 0)
(3 -3.14134e-15 0)
(3 -2.37475e-15 0)
(3 -1.96214e-15 0)
(3 -2.05358e-15 0)
(3 -1.56963e-15 0)
(3 6.39796e-16 0)
(3 1.18151e-15 0)
(3 6.59132e-16 0)
(3 -1.49248e-16 0)
(3 -2.56268e-15 0)
(3 -2.97451e-15 0)
(3 -1.67357e-15 0)
(3 -3.71795e-16 0)
(3 1.68361e-18 0)
(3 -5.95966e-17 0)
(3 4.99488e-17 0)
(3 7.0483e-16 0)
(3 1.38121e-15 0)
(3 1.36508e-15 0)
(3 7.19276e-16 0)
(3 -4.84306e-16 0)
(3 -1.12483e-15 0)
(3 -1.90915e-15 0)
(3 -1.80185e-15 0)
(3 -2.02191e-15 0)
(3 -7.1562e-16 0)
(3 -3.21008e-17 0)
(3 -3.74405e-16 0)
(3 -1.82555e-16 0)
(3 4.13227e-16 0)
(3 -3.30203e-17 0)
(3 -1.72982e-15 0)
(3 -2.24981e-15 0)
(3 -3.46671e-15 0)
(3 -3.57153e-15 0)
(3 -2.41384e-15 0)
(3 -1.61424e-15 0)
(3 3.94562e-16 0)
(3 2.25284e-16 0)
(3 -3.2553e-17 0)
(3 3.42672e-16 0)
(3 1.11959e-15 0)
(3 7.12965e-16 0)
(3 -1.21513e-15 0)
(3 -1.9921e-15 0)
(3 -1.69007e-15 0)
(3 -2.0616e-15 0)
(3 -7.79778e-16 0)
(3 -4.11787e-16 0)
(3 -3.98117e-16 0)
(3 -7.57874e-17 0)
(3 4.15444e-16 0)
(3 1.077e-15 0)
(3 9.31677e-16 0)
(3 2.946e-16 0)
(3 -7.32997e-16 0)
(3 -1.70013e-15 0)
(3 -1.51355e-15 0)
(3 -1.70774e-15 0)
(3 -1.7904e-15 0)
(3 -1.49377e-15 0)
(3 8.07755e-17 0)
(3 2.68464e-16 0)
(3 7.13283e-16 0)
(3 6.18013e-17 0)
(3 -9.77662e-16 0)
(3 -1.97099e-15 0)
(3 -2.43771e-15 0)
(3 -1.72455e-15 0)
(3 -1.24967e-15 0)
(3 -1.94124e-15 0)
(3 -1.52801e-15 0)
(3 -7.71907e-16 0)
(3 -3.94627e-16 0)
(3 -8.44303e-17 0)
(3 7.50606e-16 0)
(3 1.37105e-15 0)
(3 1.32567e-15 0)
(3 6.01968e-16 0)
(3 -4.71586e-16 0)
(3 -9.4447e-16 0)
(3 -7.12721e-16 0)
(3 9.82217e-17 0)
(3 -2.04938e-16 0)
(3 -2.337e-16 0)
(3 -2.79942e-16 0)
(3 -1.48977e-16 0)
(3 1.63393e-17 0)
(3 -8.74794e-16 0)
(3 -1.7499e-15 0)
(3 -2.06124e-15 0)
(3 -1.37799e-15 0)
(3 2.01822e-17 0)
(3 5.94894e-16 0)
(3 9.58888e-16 0)
(3 2.39385e-16 0)
(3 5.59384e-17 0)
(3 2.57297e-16 0)
(3 1.40245e-15 0)
(3 1.73469e-15 0)
(3 1.54453e-15 0)
(3 8.09854e-16 0)
(3 6.0812e-16 0)
(3 8.31396e-16 0)
(3 1.15779e-15 0)
(3 1.16223e-15 0)
(3 1.14311e-15 0)
(3 4.60519e-16 0)
(3 -3.16659e-16 0)
(3 -6.12443e-17 0)
(3 -1.45178e-16 0)
(3 -2.6529e-16 0)
(3 1.11883e-16 0)
(3 2.79336e-16 0)
(3 6.77827e-16 0)
(3 1.53049e-15 0)
(3 2.0714e-15 0)
(3 2.1985e-15 0)
(3 1.68101e-15 0)
(3 1.43739e-15 0)
(3 1.80933e-15 0)
(3 1.71927e-15 0)
(3 1.55407e-15 0)
(3 1.70812e-15 0)
(3 1.08989e-15 0)
(3 1.04458e-15 0)
(3 1.13771e-15 0)
(3 2.16846e-15 0)
(3 2.24503e-15 0)
(3 2.30697e-15 0)
(3 1.43594e-15 0)
(3 7.05084e-16 0)
(3 2.01979e-16 0)
(3 -1.21809e-16 0)
(3 -3.78748e-16 0)
(3 -3.0603e-16 0)
(3 2.70081e-16 0)
(3 6.23804e-16 0)
(3 1.19563e-15 0)
(3 1.59537e-15 0)
(3 1.65012e-15 0)
(3 1.16869e-15 0)
(3 1.06876e-15 0)
(3 1.75904e-15 0)
(3 1.59199e-15 0)
(3 1.28026e-15 0)
(3 -2.18902e-17 0)
(3 -3.84605e-16 0)
(3 1.04765e-15 0)
(3 1.10526e-15 0)
(3 6.31473e-16 0)
(3 7.08345e-16 0)
(3 4.87182e-16 0)
(3 4.38178e-16 0)
(3 4.24602e-16 0)
(3 -3.92878e-17 0)
(3 -5.30945e-16 0)
(3 -3.29281e-17 0)
(3 -1.94121e-16 0)
(3 -3.17677e-16 0)
(3 3.28735e-16 0)
(3 9.97272e-16 0)
(3 1.03288e-15 0)
(3 1.06577e-15 0)
(3 7.75288e-16 0)
(3 4.59202e-16 0)
(3 1.40751e-15 0)
(3 1.6136e-15 0)
(3 6.64893e-16 0)
(3 -3.31063e-16 0)
(3 -1.26761e-15 0)
(3 -2.39571e-15 0)
(3 -5.24667e-16 0)
(3 -3.28712e-16 0)
(3 -2.08133e-16 0)
(3 -3.37738e-16 0)
(3 -1.52479e-16 0)
(3 -9.85538e-17 0)
(3 -8.2051e-17 0)
(3 -3.31152e-16 0)
(3 2.02627e-16 0)
(3 4.1177e-17 0)
(3 1.82996e-16 0)
(3 4.52048e-17 0)
(3 -9.01099e-17 0)
(3 4.02466e-16 0)
(3 2.51238e-16 0)
(3 -1.34122e-16 0)
(3 -6.21594e-17 0)
(3 3.49009e-16 0)
(3 1.76788e-15 0)
(3 2.22833e-15 0)
(3 1.74475e-15 0)
(3 2.52472e-16 0)
(3 -1.7275e-15 0)
(3 -2.36262e-15 0)
(3 -2.99278e-15 0)
(3 -1.7618e-15 0)
(3 -4.68137e-16 0)
(3 -2.46299e-16 0)
(3 5.59779e-16 0)
(3 2.14509e-16 0)
(3 3.07648e-16 0)
(3 -1.25952e-17 0)
(3 -3.30125e-16 0)
(3 2.13893e-17 0)
(3 6.02367e-17 0)
(3 1.98224e-16 0)
(3 -2.40794e-16 0)
(3 -4.80643e-16 0)
(3 -7.22916e-16 0)
(3 -8.79998e-16 0)
(3 -6.49417e-16 0)
(3 3.66303e-16 0)
(3 1.20453e-15 0)
(3 1.4013e-15 0)
(3 1.08704e-15 0)
(3 6.99325e-16 0)
(3 2.89979e-16 0)
(3 -2.05088e-16 0)
(3 -4.23701e-16 0)
(3 -1.29213e-16 0)
(3 1.59641e-16 0)
(3 7.61718e-16 0)
(3 9.22343e-16 0)
(3 1.06576e-15 0)
(3 1.00876e-15 0)
(3 3.72293e-16 0)
(3 -1.10576e-15 0)
(3 3.32335e-16 0)
(3 2.59083e-16 0)
(3 1.2486e-16 0)
(3 4.96188e-16 0)
(3 5.45077e-16 0)
(3 4.85733e-16 0)
(3 2.3156e-16 0)
(3 2.58221e-16 0)
(3 7.06312e-16 0)
(3 4.82105e-16 0)
(3 3.08348e-16 0)
(3 7.47022e-16 0)
(3 1.18396e-15 0)
(3 1.02192e-15 0)
(3 9.96681e-16 0)
(3 1.32746e-15 0)
(3 1.82833e-15 0)
(3 8.41792e-16 0)
(3 5.62031e-16 0)
(3 4.81522e-16 0)
(3 8.94291e-16 0)
(3 8.71134e-16 0)
(3 1.32266e-15 0)
(3 -3.95444e-16 0)
(3 1.5922e-16 0)
(3 2.95487e-16 0)
(3 4.9766e-16 0)
(3 9.86359e-16 0)
(3 3.23976e-16 0)
(3 -3.07089e-16 0)
(3 -1.795e-16 0)
(3 6.66655e-17 0)
(3 3.30407e-16 0)
(3 1.01944e-15 0)
(3 1.57348e-15 0)
(3 1.29678e-15 0)
(3 1.33631e-15 0)
(3 5.94893e-16 0)
(3 -3.69941e-17 0)
(3 4.04886e-17 0)
(3 -1.60887e-16 0)
(3 -6.46713e-16 0)
(3 -1.05679e-15 0)
(3 -1.31563e-15 0)
(3 -5.86222e-16 0)
(3 1.21992e-16 0)
(3 1.94003e-15 0)
(3 1.47049e-15 0)
(3 -2.13217e-16 0)
(3 -1.87152e-16 0)
(3 5.70501e-17 0)
(3 1.41061e-16 0)
(3 -8.02669e-16 0)
(3 -8.13678e-16 0)
(3 -6.98246e-16 0)
(3 -6.08643e-16 0)
(3 -4.02871e-16 0)
(3 -2.42595e-16 0)
(3 -1.66353e-17 0)
(3 1.40708e-16 0)
(3 4.54251e-16 0)
(3 5.66438e-16 0)
(3 -1.03597e-15 0)
(3 -1.52939e-15 0)
(3 -2.08041e-15 0)
(3 -1.33896e-15 0)
(3 -1.84372e-15 0)
(3 -2.67493e-15 0)
(3 -2.16984e-15 0)
(3 -4.4191e-16 0)
(3 3.92217e-16 0)
(3 1.63056e-15 0)
(3 -1.65556e-16 0)
(3 -3.29565e-16 0)
(3 -1.02373e-15 0)
(3 -1.14878e-15 0)
(3 -2.73207e-16 0)
(3 2.80407e-16 0)
(3 3.91474e-16 0)
(3 2.64185e-16 0)
(3 -7.32335e-16 0)
(3 -1.62626e-15 0)
(3 -2.08629e-15 0)
(3 -9.00324e-16 0)
(3 4.41814e-16 0)
(3 4.56889e-16 0)
(3 6.87676e-17 0)
(3 -2.05117e-15 0)
(3 -2.26571e-15 0)
(3 -1.99072e-15 0)
(3 -1.28768e-15 0)
(3 -1.28763e-15 0)
(3 -1.49543e-15 0)
(3 -7.98388e-16 0)
(3 -2.21794e-16 0)
(3 8.60969e-16 0)
(3 -7.18318e-17 0)
(3 -9.86519e-17 0)
(3 -4.75834e-16 0)
(3 -4.55029e-16 0)
(3 -3.78866e-17 0)
(3 2.82531e-16 0)
(3 5.65921e-16 0)
(3 8.30823e-16 0)
(3 -2.75786e-16 0)
(3 -1.84367e-15 0)
(3 -1.89622e-15 0)
(3 -1.13861e-15 0)
(3 4.72236e-16 0)
(3 7.77719e-16 0)
(3 -2.57618e-16 0)
(3 -7.89849e-16 0)
(3 -1.27156e-15 0)
(3 -1.8401e-15 0)
(3 -8.49793e-16 0)
(3 -1.11282e-16 0)
(3 3.82789e-17 0)
(3 1.01177e-16 0)
(3 4.69934e-16 0)
(3 6.46711e-16 0)
(2.93137 0.0362666 0)
(2.85526 0.0376575 0)
(2.751 0.155804 0)
(2.66847 0.24371 0)
(2.58437 0.339759 0)
(2.49116 0.452078 0)
(2.4298 0.541802 0)
(2.34954 0.625633 0)
(2.31038 0.722941 0)
(2.25736 0.800297 0)
(2.2505 0.855289 0)
(2.28485 0.887053 0)
(2.32354 0.899737 0)
(2.33474 0.886461 0)
(2.34538 0.881686 0)
(2.3482 0.865265 0)
(2.3494 0.858233 0)
(2.34655 0.852956 0)
(2.34155 0.85016 0)
(2.34028 0.849615 0)
(2.34055 0.848821 0)
(2.33966 0.848362 0)
(2.33839 0.848767 0)
(2.33728 0.849421 0)
(2.99846 0.00166576 0)
(2.99127 0.0106842 0)
(2.96058 0.0482149 0)
(2.89997 0.134593 0)
(2.80883 0.270096 0)
(2.671 0.470919 0)
(2.54154 0.679033 0)
(2.38505 0.900617 0)
(2.21393 1.0748 0)
(2.16536 1.10128 0)
(2.14761 1.04434 0)
(2.19118 1.00066 0)
(2.24083 0.950729 0)
(2.30346 0.90092 0)
(2.32975 0.858836 0)
(2.3477 0.826614 0)
(2.35649 0.832394 0)
(2.35746 0.841801 0)
(2.35298 0.846803 0)
(2.34811 0.847354 0)
(2.34571 0.846995 0)
(2.34463 0.846866 0)
(2.34252 0.847087 0)
(2.34017 0.849322 0)
(3 4.27664e-07 0)
(3.00002 -1.90251e-05 0)
(2.99996 6.60763e-06 0)
(2.99983 0.000256899 0)
(2.99868 0.0017835 0)
(2.99105 0.0132002 0)
(2.96656 0.0519917 0)
(2.89704 0.174916 0)
(2.7665 0.419135 0)
(2.61374 0.685221 0)
(2.43646 0.858727 0)
(2.33246 0.92711 0)
(2.29961 0.91586 0)
(2.30378 0.901967 0)
(2.30562 0.896311 0)
(2.34254 0.862374 0)
(2.35786 0.856395 0)
(2.35997 0.856275 0)
(2.358 0.849468 0)
(2.35464 0.848801 0)
(2.35212 0.848114 0)
(2.35268 0.847689 0)
(2.35042 0.848514 0)
(2.34581 0.851024 0)
(3 -9.77719e-10 0)
(3 -9.18149e-07 0)
(3 -1.96604e-06 0)
(3 -1.49365e-06 0)
(3 -8.54509e-06 0)
(2.99999 2.36849e-05 0)
(3.00003 -7.75682e-05 0)
(2.9993 0.00103044 0)
(2.98864 0.0203782 0)
(2.92207 0.137752 0)
(2.68255 0.488697 0)
(2.50535 0.720922 0)
(2.3494 0.884198 0)
(2.27015 0.972213 0)
(2.27255 0.956272 0)
(2.30326 0.915854 0)
(2.33232 0.875246 0)
(2.34833 0.8605 0)
(2.35479 0.850197 0)
(2.36066 0.840803 0)
(2.36036 0.841689 0)
(2.35917 0.845703 0)
(2.35804 0.846002 0)
(2.35278 0.847186 0)
(3 -1.69943e-10 0)
(3 2.81974e-09 0)
(3 -8.35853e-08 0)
(3 -1.3939e-07 0)
(3 -5.53856e-07 0)
(3 -6.40492e-07 0)
(3 -5.38396e-06 0)
(3 -5.63105e-06 0)
(3.00002 -4.93962e-05 0)
(2.99944 0.000599091 0)
(2.98222 0.0232275 0)
(2.88104 0.160371 0)
(2.65974 0.460365 0)
(2.36275 0.815973 0)
(2.359 0.839728 0)
(2.3085 0.879087 0)
(2.31281 0.876561 0)
(2.32909 0.871535 0)
(2.34898 0.852157 0)
(2.35586 0.843283 0)
(2.35966 0.843233 0)
(2.36131 0.840929 0)
(2.35922 0.842878 0)
(2.35343 0.84268 0)
(3 -1.04649e-12 0)
(3 1.40352e-10 0)
(3 3.26586e-10 0)
(3 -9.48137e-10 0)
(3 -4.68477e-10 0)
(3 -3.36826e-08 0)
(3 -7.99252e-08 0)
(3 -3.44012e-07 0)
(3 -5.99938e-06 0)
(3 -5.60213e-06 0)
(3.00003 -5.34046e-05 0)
(2.99891 0.00141823 0)
(2.96859 0.0397642 0)
(2.80755 0.23639 0)
(2.6275 0.513516 0)
(2.31223 0.868835 0)
(2.25534 0.894362 0)
(2.30467 0.879246 0)
(2.31176 0.873731 0)
(2.32249 0.865067 0)
(2.3442 0.852251 0)
(2.35074 0.846531 0)
(2.35052 0.840928 0)
(2.34758 0.841326 0)
(3 3.02756e-14 0)
(3 -9.16431e-14 0)
(3 2.28412e-11 0)
(3 1.73418e-11 0)
(3 1.73349e-11 0)
(3 -2.33632e-10 0)
(3 -5.41845e-10 0)
(3 -6.09505e-10 0)
(3 -8.68071e-09 0)
(3 -3.46881e-07 0)
(3 -3.89312e-06 0)
(3.00001 -9.76699e-06 0)
(2.99998 -1.42499e-06 0)
(2.99596 0.0061198 0)
(2.94907 0.0680857 0)
(2.70594 0.371426 0)
(2.55962 0.59522 0)
(2.32873 0.82857 0)
(2.26676 0.89824 0)
(2.28249 0.878603 0)
(2.31229 0.855151 0)
(2.3248 0.849469 0)
(2.33595 0.850035 0)
(2.33834 0.842264 0)
(3 6.26761e-15 0)
(3 6.8817e-15 0)
(3 1.98998e-14 0)
(3 1.29585e-12 0)
(3 2.22339e-12 0)
(3 2.29448e-12 0)
(3 2.8121e-12 0)
(3 4.10158e-12 0)
(3 7.21153e-11 0)
(3 -6.44336e-10 0)
(3 -1.12682e-08 0)
(3 -1.69027e-06 0)
(3 -1.69024e-06 0)
(3.00001 -1.63575e-05 0)
(2.99965 0.000448721 0)
(2.98379 0.0229921 0)
(2.9054 0.149556 0)
(2.56882 0.547583 0)
(2.42718 0.731093 0)
(2.35444 0.802908 0)
(2.32363 0.84472 0)
(2.31491 0.851932 0)
(2.32189 0.849534 0)
(2.32801 0.838108 0)
(3 -1.49778e-15 0)
(3 -1.45719e-15 0)
(3 -2.19259e-15 0)
(3 1.84054e-15 0)
(3 2.19768e-14 0)
(3 2.70551e-13 0)
(3 7.8784e-13 0)
(3 1.74988e-12 0)
(3 1.29958e-11 0)
(3 1.95147e-11 0)
(3 4.35155e-11 0)
(3 -1.61014e-08 0)
(3 -1.55348e-07 0)
(3 -3.71578e-06 0)
(3 -2.01594e-06 0)
(2.99999 9.23814e-06 0)
(2.99774 0.00372511 0)
(2.93966 0.081507 0)
(2.81347 0.288727 0)
(2.45588 0.707537 0)
(2.34773 0.831822 0)
(2.32466 0.842147 0)
(2.32002 0.843686 0)
(2.31643 0.841978 0)
(3 -1.99762e-15 0)
(3 -2.21793e-15 0)
(3 -1.92757e-15 0)
(3 -1.36962e-15 0)
(3 -8.89874e-16 0)
(3 2.8244e-15 0)
(3 4.28413e-14 0)
(3 1.55438e-13 0)
(3 4.82687e-13 0)
(3 3.78887e-12 0)
(3 6.69904e-12 0)
(3 1.09084e-10 0)
(3 -1.41604e-09 0)
(3 -3.81525e-08 0)
(3 -4.11761e-07 0)
(3 -8.00447e-07 0)
(3.00001 -1.43759e-05 0)
(2.99933 0.00124444 0)
(2.98916 0.0204564 0)
(2.84356 0.214826 0)
(2.64051 0.50024 0)
(2.44625 0.736188 0)
(2.32099 0.881776 0)
(2.3019 0.868626 0)
(3 5.1555e-16 0)
(3 1.24532e-17 0)
(3 -4.06498e-16 0)
(3 -2.58976e-16 0)
(3 -9.36463e-17 0)
(3 -1.99752e-16 0)
(3 -1.54589e-16 0)
(3 4.71565e-15 0)
(3 4.53327e-15 0)
(3 3.88194e-14 0)
(3 4.89413e-13 0)
(3 1.80702e-11 0)
(3 1.5496e-11 0)
(3 2.45841e-10 0)
(3 -4.66975e-09 0)
(3 -6.70954e-08 0)
(3 -2.24228e-06 0)
(3 -5.03441e-06 0)
(2.99996 5.65267e-05 0)
(2.99356 0.0105355 0)
(2.94112 0.097853 0)
(2.71171 0.420856 0)
(2.45056 0.757905 0)
(2.37218 0.784546 0)
(3 1.74981e-15 0)
(3 1.89311e-15 0)
(3 1.07257e-15 0)
(3 1.25238e-16 0)
(3 8.75309e-17 0)
(3 -1.67615e-16 0)
(3 -1.97625e-15 0)
(3 -1.12423e-15 0)
(3 -2.40144e-16 0)
(3 8.57428e-16 0)
(3 2.58431e-15 0)
(3 3.27852e-13 0)
(3 2.6693e-12 0)
(3 2.605e-11 0)
(3 5.19651e-11 0)
(3 -1.92669e-09 0)
(3 -4.20287e-08 0)
(3 -1.31233e-06 0)
(3 -1.24098e-06 0)
(3 -2.90151e-06 0)
(2.99838 0.00338225 0)
(2.96851 0.0505029 0)
(2.75632 0.350141 0)
(2.53339 0.642199 0)
(3 1.8704e-15 0)
(3 1.54862e-15 0)
(3 1.15906e-15 0)
(3 8.91219e-16 0)
(3 1.48978e-15 0)
(3 1.39613e-15 0)
(3 4.49181e-16 0)
(3 7.0057e-17 0)
(3 -1.97913e-16 0)
(3 -7.24328e-16 0)
(3 -8.85306e-16 0)
(3 -1.72071e-15 0)
(3 1.746e-14 0)
(3 8.43663e-13 0)
(3 1.54228e-11 0)
(3 1.19462e-11 0)
(3 1.14177e-10 0)
(3 -2.50427e-08 0)
(3 -2.8946e-07 0)
(3 -4.57773e-07 0)
(3 -2.75537e-06 0)
(2.99932 0.00146426 0)
(2.97818 0.0350587 0)
(2.84257 0.250066 0)
(3 1.30546e-15 0)
(3 3.4323e-16 0)
(3 -2.5949e-16 0)
(3 -4.36821e-16 0)
(3 4.722e-16 0)
(3 8.48244e-16 0)
(3 1.36505e-15 0)
(3 1.95062e-15 0)
(3 7.80483e-16 0)
(3 -6.54454e-16 0)
(3 -1.22111e-15 0)
(3 -2.20921e-15 0)
(3 -1.48387e-15 0)
(3 -2.18755e-16 0)
(3 7.73519e-13 0)
(3 3.34819e-12 0)
(3 2.59873e-11 0)
(3 5.2979e-11 0)
(3 -1.61472e-08 0)
(3 -1.3532e-07 0)
(3 -3.00973e-07 0)
(3 -5.33909e-07 0)
(2.99967 0.000701693 0)
(2.99109 0.0164906 0)
(3 -4.34509e-16 0)
(3 -1.12684e-15 0)
(3 -1.09569e-15 0)
(3 -1.18578e-15 0)
(3 3.47741e-17 0)
(3 1.1728e-15 0)
(3 1.62858e-15 0)
(3 1.7052e-15 0)
(3 4.3528e-16 0)
(3 1.10008e-16 0)
(3 -5.58784e-16 0)
(3 -1.47888e-16 0)
(3 -8.61077e-17 0)
(3 5.03889e-17 0)
(3 2.00146e-15 0)
(3 1.51311e-13 0)
(3 2.86e-12 0)
(3 3.99951e-12 0)
(3 -1.00162e-10 0)
(3 -1.15541e-08 0)
(3 -7.99666e-08 0)
(3 -6.78187e-08 0)
(3 -3.16447e-06 0)
(2.99998 1.03064e-05 0)
(3 -2.27387e-15 0)
(3 -2.08225e-15 0)
(3 -1.14521e-15 0)
(3 4.96448e-16 0)
(3 1.78267e-15 0)
(3 3.1454e-15 0)
(3 2.69733e-15 0)
(3 1.13321e-15 0)
(3 1.03586e-16 0)
(3 -1.62064e-15 0)
(3 -2.36198e-15 0)
(3 -2.00964e-15 0)
(3 -1.65603e-15 0)
(3 -1.10612e-15 0)
(3 -3.59e-15 0)
(3 1.39078e-16 0)
(3 1.57776e-16 0)
(3 4.92386e-13 0)
(3 6.85197e-13 0)
(3 -1.71798e-10 0)
(3 -2.26457e-09 0)
(3 -2.49183e-08 0)
(3 -1.53006e-06 0)
(3 1.88961e-06 0)
(3 -1.97023e-15 0)
(3 -6.80736e-16 0)
(3 6.03392e-17 0)
(3 2.96428e-16 0)
(3 2.2358e-16 0)
(3 2.38095e-16 0)
(3 1.66094e-15 0)
(3 1.95342e-15 0)
(3 8.43705e-16 0)
(3 -1.62743e-15 0)
(3 -3.19693e-15 0)
(3 -4.23025e-15 0)
(3 -4.15733e-15 0)
(3 -4.23035e-15 0)
(3 -4.20709e-15 0)
(3 -4.0086e-15 0)
(3 -2.17854e-14 0)
(3 -1.13263e-12 0)
(3 -2.66151e-13 0)
(3 3.65366e-11 0)
(3 3.31869e-09 0)
(3 1.1778e-07 0)
(3 4.19875e-08 0)
(3 8.35947e-06 0)
(3 5.04012e-16 0)
(3 7.88014e-16 0)
(3 9.99779e-16 0)
(3 5.76418e-16 0)
(3 -1.73095e-15 0)
(3 -2.66579e-15 0)
(3 -1.93332e-15 0)
(3 -6.76611e-16 0)
(3 -9.9557e-16 0)
(3 -9.65161e-16 0)
(3 -1.98565e-15 0)
(3 -1.97861e-15 0)
(3 -2.12067e-15 0)
(3 -1.93833e-15 0)
(3 -4.33065e-15 0)
(3 -9.68538e-14 0)
(3 -1.97462e-12 0)
(3 -9.03563e-12 0)
(3 4.18125e-11 0)
(3 8.22353e-09 0)
(3 4.02009e-08 0)
(3 7.69516e-07 0)
(3 -5.45743e-06 0)
(2.99999 2.02464e-05 0)
(3 -1.39377e-15 0)
(3 -1.2441e-15 0)
(3 3.13571e-16 0)
(3 9.4543e-16 0)
(3 -6.83544e-16 0)
(3 -2.69213e-15 0)
(3 -3.64147e-15 0)
(3 -3.27141e-15 0)
(3 -2.76228e-15 0)
(3 -1.51506e-15 0)
(3 -2.00475e-15 0)
(3 -1.29312e-15 0)
(3 -4.99032e-16 0)
(3 -2.11375e-15 0)
(3 -7.30442e-13 0)
(3 -2.94461e-12 0)
(3 -2.39456e-11 0)
(3 -6.32593e-11 0)
(3 1.63531e-08 0)
(3 1.3109e-07 0)
(3 1.75078e-07 0)
(3 3.50641e-06 0)
(2.99957 -0.000937867 0)
(2.99406 -0.0132395 0)
(3 -1.24795e-15 0)
(3 -1.46442e-15 0)
(3 -1.10109e-15 0)
(3 -5.20979e-16 0)
(3 -4.65245e-16 0)
(3 -9.08334e-16 0)
(3 -1.05494e-15 0)
(3 -1.27288e-15 0)
(3 -8.50435e-16 0)
(3 -1.1677e-15 0)
(3 -1.83205e-15 0)
(3 -3.34923e-15 0)
(3 -2.88986e-14 0)
(3 -8.16451e-13 0)
(3 -1.6333e-11 0)
(3 -1.21933e-11 0)
(3 -3.61339e-11 0)
(3 2.21385e-08 0)
(3 3.47231e-07 0)
(3 5.85309e-07 0)
(3 -1.54019e-06 0)
(2.99931 -0.00121198 0)
(2.97569 -0.0424981 0)
(2.86635 -0.231425 0)
(3 -8.10592e-16 0)
(3 -1.03617e-15 0)
(3 -2.48244e-15 0)
(3 -3.85136e-15 0)
(3 -2.95863e-15 0)
(3 -6.29976e-16 0)
(3 1.1772e-15 0)
(3 3.87042e-16 0)
(3 3.0008e-16 0)
(3 -7.85479e-16 0)
(3 -2.9569e-15 0)
(3 -3.44881e-13 0)
(3 -2.73872e-12 0)
(3 -2.43878e-11 0)
(3 -5.88911e-11 0)
(3 1.72284e-09 0)
(3 4.72541e-08 0)
(3 1.33762e-06 0)
(3 1.50784e-06 0)
(2.99999 -1.63259e-05 0)
(2.99866 -0.00280786 0)
(2.96236 -0.0567036 0)
(2.76608 -0.341356 0)
(2.57605 -0.616515 0)
(3 -4.87484e-16 0)
(3 -7.43672e-16 0)
(3 -1.54091e-15 0)
(3 -1.99964e-15 0)
(3 -1.8356e-15 0)
(3 -6.57729e-16 0)
(3 1.21279e-15 0)
(3 -2.54429e-15 0)
(3 -3.7572e-15 0)
(3 -4.03233e-14 0)
(3 -4.85221e-13 0)
(3 -1.81661e-11 0)
(3 -1.55031e-11 0)
(3 -2.25464e-10 0)
(3 4.64425e-09 0)
(3 7.21292e-08 0)
(3 2.24954e-06 0)
(3 5.20436e-06 0)
(2.99996 -5.14141e-05 0)
(2.99314 -0.0114986 0)
(2.94575 -0.090925 0)
(2.69247 -0.442958 0)
(2.46902 -0.731533 0)
(2.38193 -0.789957 0)
(3 1.09398e-16 0)
(3 -7.08861e-16 0)
(3 -1.55605e-16 0)
(3 2.48159e-16 0)
(3 7.41201e-16 0)
(3 4.13249e-18 0)
(3 -3.79168e-14 0)
(3 -1.55792e-13 0)
(3 -4.55819e-13 0)
(3 -3.81145e-12 0)
(3 -6.08503e-12 0)
(3 -1.13589e-10 0)
(3 1.58982e-09 0)
(3 3.15793e-08 0)
(3 4.77757e-07 0)
(3 7.84542e-07 0)
(3.00001 1.4865e-05 0)
(2.99932 -0.00126406 0)
(2.98948 -0.0205042 0)
(2.84389 -0.215422 0)
(2.63036 -0.509016 0)
(2.45393 -0.731928 0)
(2.32549 -0.870611 0)
(2.30687 -0.861404 0)
(3 -1.4073e-16 0)
(3 -8.07253e-16 0)
(3 -1.14416e-15 0)
(3 -2.96435e-15 0)
(3 -2.11347e-14 0)
(3 -2.70617e-13 0)
(3 -7.98568e-13 0)
(3 -1.72756e-12 0)
(3 -1.27723e-11 0)
(3 -1.92769e-11 0)
(3 -4.25267e-11 0)
(3 1.61088e-08 0)
(3 1.54129e-07 0)
(3 3.6645e-06 0)
(3 2.63108e-06 0)
(2.99999 -1.27746e-05 0)
(2.99779 -0.00364818 0)
(2.93914 -0.0824816 0)
(2.81919 -0.285943 0)
(2.45612 -0.710684 0)
(2.33965 -0.841586 0)
(2.32444 -0.838434 0)
(2.32154 -0.839471 0)
(2.31705 -0.841125 0)
(3 -6.27814e-15 0)
(3 -6.42776e-15 0)
(3 -1.93473e-14 0)
(3 -1.29757e-12 0)
(3 -2.23484e-12 0)
(3 -2.30418e-12 0)
(3 -2.82508e-12 0)
(3 -4.10669e-12 0)
(3 -6.90353e-11 0)
(3 6.46292e-10 0)
(3 1.12156e-08 0)
(3 1.68532e-06 0)
(3 1.69119e-06 0)
(3.00001 1.66111e-05 0)
(2.99965 -0.000449751 0)
(2.9837 -0.0231276 0)
(2.90641 -0.148835 0)
(2.56656 -0.550379 0)
(2.4314 -0.726875 0)
(2.35483 -0.805271 0)
(2.3223 -0.845601 0)
(2.31376 -0.851042 0)
(2.32286 -0.847407 0)
(2.32855 -0.83773 0)
(3 -2.99066e-14 0)
(3 9.13723e-14 0)
(3 -2.2834e-11 0)
(3 -1.73073e-11 0)
(3 -1.73749e-11 0)
(3 2.3183e-10 0)
(3 5.39401e-10 0)
(3 6.77684e-10 0)
(3 8.54875e-09 0)
(3 3.45569e-07 0)
(3 3.92692e-06 0)
(3.00001 9.62024e-06 0)
(2.99998 2.70528e-06 0)
(2.99595 -0.00613683 0)
(2.94926 -0.0679211 0)
(2.70548 -0.372093 0)
(2.5595 -0.595463 0)
(2.32859 -0.828376 0)
(2.26754 -0.896603 0)
(2.28343 -0.878559 0)
(2.3119 -0.855922 0)
(2.32432 -0.849707 0)
(2.33525 -0.849059 0)
(2.33924 -0.842231 0)
(3 1.05041e-12 0)
(3 -1.40458e-10 0)
(3 -3.26801e-10 0)
(3 9.49288e-10 0)
(3 4.68457e-10 0)
(3 3.37203e-08 0)
(3 7.98219e-08 0)
(3 3.44392e-07 0)
(3 5.99431e-06 0)
(3 5.60363e-06 0)
(3.00003 5.36271e-05 0)
(2.99891 -0.00142173 0)
(2.96863 -0.0396867 0)
(2.80726 -0.236719 0)
(2.62823 -0.513105 0)
(2.31238 -0.869021 0)
(2.25457 -0.894916 0)
(2.30443 -0.879079 0)
(2.31163 -0.873412 0)
(2.3224 -0.865127 0)
(2.344 -0.852782 0)
(2.35005 -0.846724 0)
(2.35058 -0.840418 0)
(2.34804 -0.841006 0)
(3 1.69709e-10 0)
(3 -2.81818e-09 0)
(3 8.3575e-08 0)
(3 1.39509e-07 0)
(3 5.54099e-07 0)
(3 6.40522e-07 0)
(3 5.38243e-06 0)
(3 5.63157e-06 0)
(3.00002 4.93097e-05 0)
(2.99944 -0.000598247 0)
(2.98222 -0.0232343 0)
(2.88105 -0.160314 0)
(2.65972 -0.460352 0)
(2.36265 -0.816072 0)
(2.35917 -0.839683 0)
(2.30851 -0.879097 0)
(2.31267 -0.876641 0)
(2.32896 -0.871497 0)
(2.349 -0.851669 0)
(2.35593 -0.843351 0)
(2.35962 -0.843373 0)
(2.36107 -0.841127 0)
(2.35917 -0.842819 0)
(2.35361 -0.842553 0)
(3 9.75688e-10 0)
(3 9.17595e-07 0)
(3 1.96519e-06 0)
(3 1.49495e-06 0)
(3 8.54502e-06 0)
(2.99999 -2.36899e-05 0)
(3.00003 7.75407e-05 0)
(2.9993 -0.00103058 0)
(2.98864 -0.0203742 0)
(2.92202 -0.137802 0)
(2.68268 -0.488553 0)
(2.50526 -0.720952 0)
(2.34929 -0.884295 0)
(2.27015 -0.972224 0)
(2.27263 -0.956201 0)
(2.30333 -0.915785 0)
(2.3323 -0.875325 0)
(2.34808 -0.860673 0)
(2.35492 -0.849966 0)
(2.36082 -0.840763 0)
(2.36044 -0.84179 0)
(2.35913 -0.84579 0)
(2.35794 -0.845964 0)
(2.35275 -0.847146 0)
(3 -4.27903e-07 0)
(3.00002 1.8963e-05 0)
(2.99996 -6.17839e-06 0)
(2.99983 -0.000257224 0)
(2.99868 -0.0017831 0)
(2.99104 -0.0132009 0)
(2.96655 -0.0519986 0)
(2.89705 -0.174901 0)
(2.76651 -0.419132 0)
(2.61366 -0.685297 0)
(2.43654 -0.858662 0)
(2.33247 -0.927108 0)
(2.2996 -0.915877 0)
(2.30376 -0.901989 0)
(2.30568 -0.89626 0)
(2.34255 -0.862318 0)
(2.35789 -0.856536 0)
(2.35986 -0.856301 0)
(2.35799 -0.849378 0)
(2.35472 -0.848763 0)
(2.35216 -0.848216 0)
(2.35262 -0.847746 0)
(2.35041 -0.848466 0)
(2.3458 -0.850981 0)
(2.99846 -0.00166592 0)
(2.99127 -0.010685 0)
(2.96058 -0.0482076 0)
(2.89996 -0.134605 0)
(2.80885 -0.270087 0)
(2.671 -0.470913 0)
(2.54149 -0.679058 0)
(2.3851 -0.900595 0)
(2.21394 -1.07479 0)
(2.16534 -1.1013 0)
(2.1476 -1.04434 0)
(2.19124 -1.00065 0)
(2.24085 -0.950719 0)
(2.30341 -0.900962 0)
(2.3298 -0.858768 0)
(2.34769 -0.826578 0)
(2.35653 -0.832449 0)
(2.35741 -0.841856 0)
(2.35298 -0.846762 0)
(2.34812 -0.847319 0)
(2.34572 -0.84701 0)
(2.34462 -0.846902 0)
(2.34251 -0.847087 0)
(2.34017 -0.849291 0)
(2.93137 -0.0362754 0)
(2.85526 -0.03766 0)
(2.75102 -0.15576 0)
(2.66843 -0.243786 0)
(2.58443 -0.339689 0)
(2.49115 -0.452096 0)
(2.42977 -0.541831 0)
(2.34954 -0.625632 0)
(2.31039 -0.722917 0)
(2.25737 -0.800302 0)
(2.25051 -0.8553 0)
(2.28486 -0.887042 0)
(2.32358 -0.899727 0)
(2.33472 -0.886496 0)
(2.34535 -0.881679 0)
(2.34819 -0.865251 0)
(2.34941 -0.858251 0)