/*--------------------------------*- C++ -*----------------------------------*\
  =========                 |
  \\      /  F ield         | OpenFOAM: The Open Source CFD Toolbox
   \\    /   O peration     | Website:  https://openfoam.org
    \\  /    A nd           | Version:  7
     \\/     M anipulation  |
\*---------------------------------------------------------------------------*/
FoamFile
{
    version     2.0;
    format      ascii;
    class       volVectorField;
    location    "2.7";
    object      U;
}
// * * * * * * * * * * * * * * * * * * * * * * * * * * * * * * * * * * * * * //

dimensions      [0 1 -1 0 0 0 0];

internalField   nonuniform List<vector> 
73728
(
(3 -1.43521e-17 0)
(3 9.02545e-18 0)
(3 7.23101e-17 0)
(3 2.12806e-16 0)
(3 5.12138e-16 0)
(3 4.2044e-16 0)
(3 2.40377e-16 0)
(3 1.15886e-16 0)
(3 2.86417e-16 0)
(3 2.91984e-16 0)
(3 4.26709e-16 0)
(3 7.48553e-16 0)
(3 1.00131e-15 0)
(3 8.70243e-16 0)
(3 8.14712e-16 0)
(3 3.14307e-16 0)
(3 5.12204e-16 0)
(3 6.72193e-16 0)
(3 8.12178e-16 0)
(3 5.10389e-16 0)
(3 4.87045e-16 0)
(3 4.4927e-16 0)
(3 2.5736e-16 0)
(3 3.66251e-16 0)
(3 8.69829e-16 0)
(3 6.60471e-16 0)
(3 4.82187e-16 0)
(3 1.86354e-16 0)
(3 3.39992e-16 0)
(3 4.73506e-16 0)
(3 -3.44926e-16 0)
(3 -1.93309e-16 0)
(3 2.87645e-16 0)
(3 3.23922e-16 0)
(3 -1.64826e-16 0)
(3 -2.74352e-16 0)
(3 -7.49871e-16 0)
(3 -9.77817e-16 0)
(3 -1.20088e-15 0)
(3 -7.15184e-16 0)
(3 -1.22278e-15 0)
(3 -1.6231e-15 0)
(3 -8.58493e-16 0)
(3 -1.78215e-17 0)
(3 4.83368e-16 0)
(3 1.7522e-16 0)
(3 -5.05779e-17 0)
(3 3.9547e-16 0)
(3 5.09775e-16 0)
(3 3.15566e-16 0)
(3 3.5043e-16 0)
(3 3.57654e-16 0)
(3 1.62032e-16 0)
(3 2.52186e-16 0)
(3 -5.99765e-16 0)
(3 -4.732e-16 0)
(3 -1.3493e-16 0)
(3 -3.75318e-17 0)
(3 -5.24195e-16 0)
(3 -1.15898e-15 0)
(3 -1.19689e-15 0)
(3 -4.47401e-16 0)
(3 2.9108e-16 0)
(3 3.73923e-16 0)
(3 5.7883e-16 0)
(3 6.71322e-16 0)
(3 7.14924e-16 0)
(3 1.61422e-16 0)
(3 -5.73377e-16 0)
(3 -6.93007e-16 0)
(3 -7.50104e-16 0)
(3 -8.78054e-16 0)
(3 -1.2236e-15 0)
(3 -8.35242e-16 0)
(3 -3.61447e-16 0)
(3 -1.02188e-17 0)
(3 2.88989e-16 0)
(3 8.67863e-16 0)
(3 1.09887e-15 0)
(3 5.17707e-16 0)
(3 -1.75854e-16 0)
(3 -1.75037e-16 0)
(3 -1.74287e-16 0)
(3 -9.01846e-17 0)
(3 -1.56371e-17 0)
(3 3.7048e-16 0)
(3 3.81967e-16 0)
(3 5.23334e-16 0)
(3 2.70643e-16 0)
(3 -3.50917e-16 0)
(3 -3.46671e-16 0)
(3 8.89091e-17 0)
(3 1.07262e-15 0)
(3 1.84065e-15 0)
(3 -1.17781e-16 0)
(3 -7.24509e-16 0)
(3 1.02653e-16 0)
(3 1.14221e-16 0)
(3 1.16928e-16 0)
(3 1.36323e-16 0)
(3 5.41982e-16 0)
(3 7.72067e-16 0)
(3 2.01944e-16 0)
(3 2.37995e-16 0)
(3 1.32245e-17 0)
(3 -1.90161e-16 0)
(3 -1.46006e-16 0)
(3 7.32247e-16 0)
(3 9.61772e-16 0)
(3 8.81265e-16 0)
(3 1.34796e-15 0)
(3 7.59523e-16 0)
(3 1.2082e-15 0)
(3 1.04296e-15 0)
(3 8.97875e-16 0)
(3 5.14672e-16 0)
(3 4.23618e-16 0)
(3 8.80565e-16 0)
(3 6.28767e-16 0)
(3 7.23332e-16 0)
(3 1.2903e-15 0)
(3 1.84716e-15 0)
(3 1.57575e-15 0)
(3 1.3584e-15 0)
(3 1.6696e-15 0)
(3 7.48988e-16 0)
(3 -5.26111e-16 0)
(3 -5.45056e-16 0)
(3 7.42092e-17 0)
(3 4.40406e-17 0)
(3 4.36116e-16 0)
(3 6.45215e-16 0)
(3 -4.18571e-16 0)
(3 -5.4073e-16 0)
(3 -1.12416e-15 0)
(3 -1.19712e-15 0)
(3 -1.37519e-15 0)
(3 -1.37184e-15 0)
(3 -1.00312e-15 0)
(3 -4.83287e-17 0)
(3 8.45091e-16 0)
(3 1.41605e-15 0)
(3 1.29858e-15 0)
(3 1.62264e-15 0)
(3 1.89502e-15 0)
(3 1.5391e-15 0)
(3 1.28632e-15 0)
(3 1.30407e-15 0)
(3 6.66787e-16 0)
(3 4.25137e-16 0)
(3 -5.1151e-16 0)
(3 -7.22364e-17 0)
(3 3.47574e-16 0)
(3 8.53413e-16 0)
(3 -5.85974e-17 0)
(3 8.01224e-17 0)
(3 4.7739e-16 0)
(3 9.37991e-16 0)
(3 1.07715e-15 0)
(3 1.05615e-15 0)
(3 8.77684e-16 0)
(3 7.56474e-16 0)
(3 9.86908e-16 0)
(3 3.31995e-16 0)
(3 -2.58319e-17 0)
(3 1.31018e-17 0)
(3 -7.36374e-18 0)
(3 2.20179e-16 0)
(3 -5.67773e-17 0)
(3 -2.22036e-16 0)
(3 -3.33549e-16 0)
(3 -6.53138e-16 0)
(3 -1.19558e-16 0)
(3 1.22203e-15 0)
(3 1.04731e-15 0)
(3 5.66683e-16 0)
(3 9.88506e-18 0)
(3 2.62212e-16 0)
(3 2.53911e-16 0)
(3 5.29456e-16 0)
(3 8.38906e-16 0)
(3 9.20817e-16 0)
(3 1.0027e-15 0)
(3 7.22696e-16 0)
(3 5.57807e-16 0)
(3 5.71887e-17 0)
(3 -2.4327e-16 0)
(3 2.61618e-17 0)
(3 8.41881e-16 0)
(3 1.56314e-15 0)
(3 -1.60733e-15 0)
(3 -1.96022e-15 0)
(3 1.24271e-16 0)
(3 -7.81051e-17 0)
(3 -1.79323e-16 0)
(3 -4.31192e-16 0)
(3 -2.73423e-16 0)
(3 1.63199e-16 0)
(3 2.18784e-17 0)
(3 -1.73518e-16 0)
(3 -1.57159e-16 0)
(3 3.42487e-17 0)
(3 1.68907e-16 0)
(3 5.65381e-16 0)
(3 5.02695e-16 0)
(3 4.0247e-16 0)
(3 2.21484e-17 0)
(3 3.56044e-17 0)
(3 1.48576e-16 0)
(3 6.29062e-16 0)
(3 6.44069e-16 0)
(3 6.89971e-16 0)
(3 1.44642e-16 0)
(3 -4.1285e-16 0)
(3 -5.03191e-17 0)
(3 -2.29596e-16 0)
(3 -3.57203e-16 0)
(3 -3.12388e-16 0)
(3 6.13126e-16 0)
(3 1.09596e-15 0)
(3 4.1664e-16 0)
(3 -2.59233e-16 0)
(3 -5.98852e-16 0)
(3 -9.30482e-16 0)
(3 -1.4989e-16 0)
(3 4.10779e-16 0)
(3 1.79399e-15 0)
(3 2.31123e-15 0)
(3 1.69023e-15 0)
(3 1.79265e-15 0)
(3 8.76307e-16 0)
(3 -1.09346e-15 0)
(3 -1.35188e-15 0)
(3 -1.21696e-15 0)
(3 -1.23325e-15 0)
(3 -1.16508e-15 0)
(3 -5.62e-16 0)
(3 5.78893e-16 0)
(3 1.8844e-15 0)
(3 2.17652e-15 0)
(3 2.28557e-15 0)
(3 2.19527e-15 0)
(3 1.89552e-15 0)
(3 8.09703e-16 0)
(3 7.54462e-17 0)
(3 -2.35354e-16 0)
(3 -1.4154e-16 0)
(3 1.05887e-17 0)
(3 4.71934e-16 0)
(3 1.27004e-15 0)
(3 1.11305e-15 0)
(3 2.55544e-15 0)
(3 2.95795e-15 0)
(3 2.41787e-15 0)
(3 1.54675e-15 0)
(3 1.68804e-15 0)
(3 1.47937e-15 0)
(3 7.31691e-16 0)
(3 -2.82062e-17 0)
(3 2.80513e-16 0)
(3 5.0858e-16 0)
(3 8.12933e-16 0)
(3 8.33562e-16 0)
(3 1.09548e-15 0)
(3 8.77482e-16 0)
(3 3.55682e-16 0)
(3 -8.63936e-16 0)
(3 -1.64422e-15 0)
(3 -9.99295e-16 0)
(3 4.21685e-16 0)
(3 4.5586e-16 0)
(3 3.34868e-16 0)
(3 3.84079e-16 0)
(3 6.23816e-16 0)
(3 1.03423e-15 0)
(3 1.116e-15 0)
(3 1.07592e-15 0)
(3 1.36655e-15 0)
(3 1.44873e-15 0)
(3 1.53618e-15 0)
(3 2.10613e-15 0)
(3 2.37456e-15 0)
(3 1.27353e-15 0)
(3 1.9122e-16 0)
(3 3.25785e-16 0)
(3 -2.79913e-16 0)
(3 -7.00819e-16 0)
(3 -1.11968e-15 0)
(3 9.35588e-17 0)
(3 -2.61742e-16 0)
(3 -3.34082e-16 0)
(3 -2.28206e-16 0)
(3 -3.59369e-16 0)
(3 -3.94602e-16 0)
(3 -6.42034e-17 0)
(3 -7.8839e-17 0)
(3 6.41606e-16 0)
(3 9.51065e-16 0)
(3 1.28205e-15 0)
(3 1.45995e-15 0)
(3 8.94596e-16 0)
(3 7.04289e-16 0)
(3 1.73634e-16 0)
(3 -2.33035e-16 0)
(3 -2.24699e-16 0)
(3 2.15382e-16 0)
(3 4.50197e-16 0)
(3 4.24852e-16 0)
(3 1.29669e-16 0)
(3 2.56822e-17 0)
(3 1.3406e-16 0)
(3 -5.15531e-17 0)
(3 -1.01475e-15 0)
(3 -1.08732e-15 0)
(3 -8.79535e-16 0)
(3 -5.39295e-16 0)
(3 -6.27418e-16 0)
(3 -4.98668e-16 0)
(3 -2.29592e-16 0)
(3 2.11096e-16 0)
(3 5.55429e-16 0)
(3 1.21574e-15 0)
(3 1.53356e-15 0)
(3 1.67417e-15 0)
(3 1.33001e-15 0)
(3 1.12676e-15 0)
(3 1.53846e-15 0)
(3 6.07778e-16 0)
(3 -3.7156e-16 0)
(3 -9.01253e-16 0)
(3 -1.30725e-15 0)
(3 -1.46047e-15 0)
(3 -1.07494e-15 0)
(3 -6.921e-16 0)
(3 6.42952e-17 0)
(3 7.84889e-16 0)
(3 1.00849e-15 0)
(3 4.94901e-16 0)
(3 3.06906e-16 0)
(3 9.29831e-17 0)
(3 3.55058e-16 0)
(3 3.96359e-16 0)
(3 2.86052e-16 0)
(3 -3.44167e-16 0)
(3 -3.89992e-16 0)
(3 -4.80182e-16 0)
(3 1.00224e-15 0)
(3 3.3625e-15 0)
(3 3.21843e-15 0)
(3 2.65448e-15 0)
(3 1.79134e-15 0)
(3 1.77355e-15 0)
(3 1.29793e-15 0)
(3 -6.82979e-17 0)
(3 -1.07953e-15 0)
(3 -1.04614e-15 0)
(3 -4.33601e-16 0)
(3 -3.1107e-16 0)
(3 2.7599e-17 0)
(3 1.51814e-16 0)
(3 5.39815e-17 0)
(3 -5.33589e-16 0)
(3 -8.77028e-16 0)
(3 -8.32671e-16 0)
(3 -5.56065e-17 0)
(3 2.69681e-16 0)
(3 5.5519e-16 0)
(3 1.14436e-15 0)
(3 1.39743e-15 0)
(3 1.0525e-15 0)
(3 9.38125e-16 0)
(3 1.00528e-15 0)
(3 1.71402e-15 0)
(3 1.81799e-15 0)
(3 1.41924e-15 0)
(3 1.89341e-15 0)
(3 2.07676e-15 0)
(3 1.88976e-15 0)
(3 1.58218e-15 0)
(3 7.11729e-16 0)
(3 7.6226e-17 0)
(3 -8.3866e-16 0)
(3 -9.10541e-16 0)
(3 2.47439e-16 0)
(3 1.71684e-17 0)
(3 2.032e-16 0)
(3 3.39646e-16 0)
(3 6.03559e-16 0)
(3 3.12026e-16 0)
(3 -5.668e-16 0)
(3 -4.94423e-16 0)
(3 4.47212e-16 0)
(3 6.63499e-16 0)
(3 5.19463e-16 0)
(3 9.23351e-16 0)
(3 1.03467e-15 0)
(3 8.8304e-16 0)
(3 6.59466e-16 0)
(3 5.91741e-16 0)
(3 8.77614e-16 0)
(3 7.07775e-16 0)
(3 5.63258e-16 0)
(3 6.13944e-16 0)
(3 6.61974e-16 0)
(3 7.37453e-16 0)
(3 1.13368e-15 0)
(3 7.78454e-17 0)
(3 -7.11924e-16 0)
(3 -8.05877e-16 0)
(3 -6.92702e-16 0)
(3 -5.3562e-16 0)
(3 -3.63279e-16 0)
(3 -2.93908e-16 0)
(3 8.7706e-17 0)
(3 5.44902e-16 0)
(3 6.16636e-16 0)
(3 1.92671e-16 0)
(3 4.80949e-17 0)
(3 7.07554e-17 0)
(3 4.83948e-16 0)
(3 1.23989e-15 0)
(3 1.59353e-15 0)
(3 1.93612e-15 0)
(3 2.23162e-15 0)
(3 1.9299e-15 0)
(3 9.88015e-16 0)
(3 7.23507e-16 0)
(3 3.18187e-16 0)
(3 4.40533e-16 0)
(3 4.73048e-16 0)
(3 2.62063e-16 0)
(3 -1.34945e-17 0)
(3 -1.20654e-16 0)
(3 -7.05306e-16 0)
(3 -1.00986e-15 0)
(3 -5.23534e-16 0)
(3 5.36634e-16 0)
(3 1.73426e-15 0)
(3 1.52159e-15 0)
(3 5.46319e-16 0)
(3 8.84557e-17 0)
(3 8.03347e-16 0)
(3 1.58054e-15 0)
(3 1.84787e-15 0)
(3 2.12634e-15 0)
(3 1.73511e-15 0)
(3 9.47599e-16 0)
(3 -4.46077e-17 0)
(3 -1.03293e-15 0)
(3 -1.14361e-15 0)
(3 -1.28838e-15 0)
(3 -1.32319e-15 0)
(3 -6.89601e-16 0)
(3 3.05512e-16 0)
(3 4.02297e-16 0)
(3 2.75622e-16 0)
(3 2.3387e-16 0)
(3 -2.1023e-17 0)
(3 8.49631e-17 0)
(3 -2.06196e-16 0)
(3 -6.57559e-16 0)
(3 -4.00291e-16 0)
(3 6.53576e-16 0)
(3 1.12619e-15 0)
(3 1.13305e-15 0)
(3 3.84419e-16 0)
(3 -1.63029e-16 0)
(3 5.66267e-17 0)
(3 1.63494e-15 0)
(3 1.24634e-15 0)
(3 1.81247e-15 0)
(3 2.01069e-15 0)
(3 2.48041e-15 0)
(3 2.6796e-15 0)
(3 2.58506e-15 0)
(3 2.04504e-15 0)
(3 2.11614e-16 0)
(3 -3.67823e-16 0)
(3 -7.7608e-16 0)
(3 3.67503e-16 0)
(3 -1.47497e-18 0)
(3 2.52369e-16 0)
(3 1.61909e-16 0)
(3 3.73078e-16 0)
(3 4.89539e-16 0)
(3 2.93278e-16 0)
(3 -2.28156e-17 0)
(3 -1.34221e-16 0)
(3 -2.5764e-16 0)
(3 -1.63395e-16 0)
(3 1.76157e-16 0)
(3 3.47981e-16 0)
(3 7.2683e-16 0)
(3 5.56835e-16 0)
(3 7.21715e-16 0)
(3 1.24399e-15 0)
(3 1.2527e-15 0)
(3 1.00086e-15 0)
(3 7.96922e-16 0)
(3 1.06494e-15 0)
(3 1.29032e-15 0)
(3 1.52205e-15 0)
(3 2.74358e-16 0)
(3 -2.23144e-16 0)
(3 -6.49707e-16 0)
(3 -8.70907e-16 0)
(3 -4.67646e-16 0)
(3 -8.69716e-16 0)
(3 -4.40428e-16 0)
(3 1.81113e-16 0)
(3 4.6774e-16 0)
(3 5.274e-16 0)
(3 7.62668e-16 0)
(3 6.7153e-16 0)
(3 4.81002e-16 0)
(3 4.2891e-16 0)
(3 1.41258e-15 0)
(3 1.55572e-15 0)
(3 1.3061e-15 0)
(3 1.34624e-15 0)
(3 1.58855e-15 0)
(3 1.82626e-15 0)
(3 2.06934e-15 0)
(3 1.82114e-15 0)
(3 1.25536e-15 0)
(3 4.19494e-16 0)
(3 5.94004e-16 0)
(3 2.48371e-16 0)
(3 -7.87603e-17 0)
(3 -1.15748e-16 0)
(3 -4.48794e-16 0)
(3 -1.06689e-15 0)
(3 -3.33762e-16 0)
(3 7.74624e-17 0)
(3 7.46851e-16 0)
(3 3.86489e-16 0)
(3 -4.92293e-16 0)
(3 6.24899e-16 0)
(3 1.69382e-15 0)
(3 1.32776e-15 0)
(3 1.25167e-15 0)
(3 2.67403e-16 0)
(3 -4.14085e-17 0)
(3 -1.8116e-16 0)
(3 -7.91618e-16 0)
(3 -7.95526e-16 0)
(3 -8.02901e-16 0)
(3 -4.28719e-16 0)
(3 4.12768e-16 0)
(3 1.31594e-15 0)
(3 1.73421e-15 0)
(3 1.85932e-15 0)
(3 1.50189e-15 0)
(3 1.03616e-15 0)
(3 7.19743e-16 0)
(3 4.3257e-16 0)
(3 -2.81769e-17 0)
(3 4.15103e-17 0)
(3 7.38719e-16 0)
(3 4.66013e-16 0)
(3 8.61754e-16 0)
(3 6.99685e-16 0)
(3 -3.01077e-16 0)
(3 -7.10047e-16 0)
(3 3.05393e-17 0)
(3 1.16855e-15 0)
(3 1.2335e-15 0)
(3 1.01439e-15 0)
(3 9.0245e-16 0)
(3 1.69205e-15 0)
(3 2.24278e-15 0)
(3 1.81118e-15 0)
(3 8.18494e-16 0)
(3 1.01628e-15 0)
(3 -2.42326e-16 0)
(3 3.40813e-16 0)
(3 4.82577e-18 0)
(3 1.7735e-16 0)
(3 1.16037e-16 0)
(3 -7.67514e-17 0)
(3 -2.19538e-16 0)
(3 5.86749e-17 0)
(3 1.5159e-16 0)
(3 -7.7817e-16 0)
(3 -5.17655e-16 0)
(3 -6.19016e-17 0)
(3 2.68414e-16 0)
(3 6.00242e-16 0)
(3 5.95716e-16 0)
(3 2.40057e-16 0)
(3 2.10757e-16 0)
(3 1.52564e-16 0)
(3 3.52556e-16 0)
(3 1.03016e-16 0)
(3 -1.55381e-16 0)
(3 -2.32123e-16 0)
(3 -9.23749e-16 0)
(3 -7.06621e-16 0)
(3 6.38695e-16 0)
(3 1.14793e-15 0)
(3 1.23737e-15 0)
(3 8.87933e-16 0)
(3 2.98072e-17 0)
(3 -6.69282e-16 0)
(3 -6.34262e-16 0)
(3 -8.34554e-17 0)
(3 6.6509e-16 0)
(3 1.72259e-15 0)
(3 2.8767e-15 0)
(3 3.04864e-15 0)
(3 2.91892e-15 0)
(3 2.06091e-15 0)
(3 1.24834e-15 0)
(3 1.18474e-15 0)
(3 8.13247e-16 0)
(3 6.22223e-16 0)
(3 6.53713e-16 0)
(3 1.29732e-15 0)
(3 1.16189e-15 0)
(3 6.64101e-16 0)
(3 -5.70985e-17 0)
(3 -5.1212e-16 0)
(3 -6.49633e-16 0)
(3 -3.96018e-16 0)
(3 -2.62079e-16 0)
(3 3.01265e-16 0)
(3 6.92878e-16 0)
(3 1.33811e-16 0)
(3 -2.73175e-16 0)
(3 -9.1217e-16 0)
(3 -4.89605e-16 0)
(3 -3.51728e-16 0)
(3 -5.6377e-16 0)
(3 -4.31406e-16 0)
(3 7.89241e-16 0)
(3 3.00882e-16 0)
(3 -3.26156e-16 0)
(3 -8.01583e-16 0)
(3 -1.01873e-15 0)
(3 -1.02892e-15 0)
(3 -1.01161e-15 0)
(3 -9.37254e-16 0)
(3 -3.13287e-16 0)
(3 2.45826e-16 0)
(3 6.86081e-16 0)
(3 1.02279e-15 0)
(3 1.12798e-15 0)
(3 9.18226e-16 0)
(3 8.61287e-16 0)
(3 1.07821e-15 0)
(3 1.00247e-15 0)
(3 1.72096e-15 0)
(3 1.72984e-15 0)
(3 1.47575e-15 0)
(3 1.53899e-15 0)
(3 -6.45829e-16 0)
(3 -4.86176e-16 0)
(3 -1.54635e-16 0)
(3 -1.49174e-16 0)
(3 -8.0069e-16 0)
(3 -1.66489e-15 0)
(3 -1.79221e-15 0)
(3 -7.23383e-16 0)
(3 -5.18385e-16 0)
(3 -3.36957e-16 0)
(3 1.85244e-16 0)
(3 6.91972e-16 0)
(3 1.26641e-15 0)
(3 1.64846e-15 0)
(3 1.14179e-15 0)
(3 1.52885e-16 0)
(3 4.20036e-16 0)
(3 -4.58065e-16 0)
(3 -5.28636e-16 0)
(3 1.053e-16 0)
(3 -2.87469e-16 0)
(3 -3.48915e-16 0)
(3 -4.95998e-16 0)
(3 -7.48277e-16 0)
(3 -3.06951e-16 0)
(3 1.88804e-16 0)
(3 4.73429e-16 0)
(3 8.46998e-16 0)
(3 9.17397e-16 0)
(3 4.78543e-16 0)
(3 2.53689e-16 0)
(3 -5.61489e-16 0)
(3 -1.5465e-15 0)
(3 -1.42067e-15 0)
(3 -9.85562e-16 0)
(3 -6.92467e-16 0)
(3 -5.37298e-16 0)
(3 -1.28161e-15 0)
(3 -1.55948e-15 0)
(3 1.9952e-16 0)
(3 8.01451e-16 0)
(3 8.37187e-16 0)
(3 6.7946e-16 0)
(3 2.61505e-16 0)
(3 3.42988e-16 0)
(3 5.8342e-16 0)
(3 6.67152e-16 0)
(3 5.06448e-16 0)
(3 1.5163e-15 0)
(3 1.85371e-15 0)
(3 1.88798e-15 0)
(3 1.84051e-15 0)
(3 1.86144e-15 0)
(3 2.01027e-15 0)
(3 2.72407e-15 0)
(3 3.60133e-15 0)
(3 2.63258e-15 0)
(3 1.32475e-15 0)
(3 1.10814e-15 0)
(3 1.1655e-15 0)
(3 8.45837e-16 0)
(3 5.80579e-16 0)
(3 3.36233e-16 0)
(3 -5.06169e-17 0)
(3 6.73856e-17 0)
(3 2.85776e-16 0)
(3 8.20698e-16 0)
(3 8.6819e-16 0)
(3 1.04991e-15 0)
(3 4.04515e-16 0)
(3 -6.90114e-16 0)
(3 -6.81727e-16 0)
(3 -4.03799e-16 0)
(3 -2.02258e-16 0)
(3 6.86945e-17 0)
(3 -6.24757e-16 0)
(3 -1.53089e-15 0)
(3 -2.1053e-15 0)
(3 -1.60981e-15 0)
(3 -1.4721e-15 0)
(3 -1.72574e-15 0)
(3 -1.78785e-15 0)
(3 -1.84952e-15 0)
(3 -1.50563e-15 0)
(3 -1.1024e-15 0)
(3 -1.18048e-15 0)
(3 -4.87147e-16 0)
(3 -1.84415e-16 0)
(3 6.53473e-17 0)
(3 2.8388e-16 0)
(3 7.21635e-16 0)
(3 1.11896e-15 0)
(3 1.57136e-15 0)
(3 1.71419e-15 0)
(3 1.01936e-15 0)
(3 -3.01423e-16 0)
(3 -3.53139e-16 0)
(3 -8.57288e-16 0)
(3 -9.03378e-16 0)
(3 -1.82584e-16 0)
(3 2.54972e-16 0)
(3 -8.16843e-16 0)
(3 -2.18669e-15 0)
(3 -2.2444e-15 0)
(3 -1.60154e-15 0)
(3 -7.47509e-16 0)
(3 -8.8641e-16 0)
(3 -4.00076e-16 0)
(3 5.83618e-17 0)
(3 -3.52822e-17 0)
(3 -9.92947e-16 0)
(3 -2.06087e-15 0)
(3 -2.20537e-15 0)
(3 -1.98283e-16 0)
(3 -2.23046e-16 0)
(3 -2.78725e-16 0)
(3 -4.26956e-16 0)
(3 -4.45106e-16 0)
(3 -7.83756e-16 0)
(3 -7.71169e-16 0)
(3 -9.05017e-16 0)
(3 -6.34116e-16 0)
(3 -3.22902e-16 0)
(3 -2.02593e-16 0)
(3 3.23376e-16 0)
(3 5.37539e-16 0)
(3 8.28016e-16 0)
(3 1.10674e-15 0)
(3 -2.42452e-17 0)
(3 -8.48543e-16 0)
(3 -9.234e-16 0)
(3 -5.75891e-16 0)
(3 -8.25973e-16 0)
(3 -8.09483e-16 0)
(3 -7.70433e-16 0)
(3 2.77041e-17 0)
(3 -1.14497e-15 0)
(3 -1.75307e-15 0)
(3 -1.71493e-15 0)
(3 -1.22641e-15 0)
(3 -3.97412e-16 0)
(3 3.7795e-16 0)
(3 3.85905e-16 0)
(3 -5.82726e-18 0)
(3 -1.79321e-16 0)
(3 8.27641e-17 0)
(3 7.69369e-17 0)
(3 2.66015e-16 0)
(3 1.06153e-15 0)
(3 1.47813e-15 0)
(3 1.21044e-15 0)
(3 1.3259e-15 0)
(3 1.34699e-15 0)
(3 1.04486e-15 0)
(3 1.03033e-15 0)
(3 1.00674e-15 0)
(3 1.21187e-15 0)
(3 1.51535e-15 0)
(3 1.54728e-15 0)
(3 1.84349e-15 0)
(3 1.79286e-15 0)
(3 1.98927e-15 0)
(3 1.32903e-15 0)
(3 3.5322e-16 0)
(3 -1.29967e-16 0)
(3 -5.35756e-16 0)
(3 -5.59256e-16 0)
(3 -5.47863e-16 0)
(3 1.9726e-16 0)
(3 6.07749e-16 0)
(3 3.87735e-16 0)
(3 -4.93744e-16 0)
(3 -1.30295e-15 0)
(3 -1.40333e-15 0)
(3 -1.21173e-15 0)
(3 -1.42822e-15 0)
(3 -1.81784e-15 0)
(3 -1.70579e-15 0)
(3 -1.21181e-15 0)
(3 -9.45553e-16 0)
(3 -2.00776e-15 0)
(3 -2.29375e-15 0)
(3 -1.95191e-15 0)
(3 -1.51211e-15 0)
(3 -4.1967e-16 0)
(3 2.33351e-16 0)
(3 4.40961e-16 0)
(3 3.0268e-16 0)
(3 5.34281e-16 0)
(3 4.7173e-16 0)
(3 4.32957e-16 0)
(3 2.30353e-16 0)
(3 4.44247e-16 0)
(3 1.37335e-16 0)
(3 -8.15913e-16 0)
(3 -8.71774e-16 0)
(3 -1.45317e-16 0)
(3 -3.37652e-16 0)
(3 -2.40044e-16 0)
(3 -3.7018e-16 0)
(3 -6.08127e-16 0)
(3 -1.37822e-15 0)
(3 -2.44449e-15 0)
(3 -2.99077e-15 0)
(3 -2.8418e-15 0)
(3 -2.18982e-15 0)
(3 -2.38925e-15 0)
(3 -3.17115e-15 0)
(3 -3.77892e-15 0)
(3 2.38767e-16 0)
(3 6.4208e-16 0)
(3 -1.79311e-16 0)
(3 -5.03154e-17 0)
(3 -1.15893e-16 0)
(3 1.73457e-16 0)
(3 4.31853e-16 0)
(3 3.67513e-16 0)
(3 -1.30607e-16 0)
(3 -2.37767e-16 0)
(3 -1.58997e-16 0)
(3 -5.27746e-17 0)
(3 8.70077e-17 0)
(3 2.56857e-16 0)
(3 8.6853e-16 0)
(3 9.50639e-16 0)
(3 1.0705e-15 0)
(3 1.09521e-15 0)
(3 8.75102e-16 0)
(3 -2.30433e-16 0)
(3 -2.49215e-16 0)
(3 -2.97756e-16 0)
(3 -4.17026e-16 0)
(3 -8.1555e-16 0)
(3 -8.66723e-16 0)
(3 -7.29882e-16 0)
(3 -5.72657e-16 0)
(3 -1.11254e-15 0)
(3 -1.41391e-15 0)
(3 -1.38294e-15 0)
(3 -1.13331e-15 0)
(3 -8.6134e-16 0)
(3 -8.1556e-16 0)
(3 -4.95238e-16 0)
(3 4.38394e-16 0)
(3 7.47393e-16 0)
(3 2.35499e-16 0)
(3 1.0872e-16 0)
(3 1.9722e-16 0)
(3 3.37257e-16 0)
(3 5.03964e-16 0)
(3 7.76386e-16 0)
(3 7.08043e-16 0)
(3 7.76842e-16 0)
(3 1.51861e-15 0)
(3 1.83599e-15 0)
(3 2.19688e-15 0)
(3 2.13589e-15 0)
(3 1.67662e-15 0)
(3 1.01852e-15 0)
(3 2.95923e-16 0)
(3 -1.41181e-16 0)
(3 4.07808e-16 0)
(3 6.696e-16 0)
(3 7.92745e-16 0)
(3 1.15242e-15 0)
(3 1.45133e-15 0)
(3 1.53482e-15 0)
(3 1.47605e-15 0)
(3 2.45632e-16 0)
(3 -2.30781e-16 0)
(3 -5.80545e-16 0)
(3 -1.08453e-15 0)
(3 -1.33019e-15 0)
(3 -8.6143e-16 0)
(3 -6.15142e-16 0)
(3 -6.65908e-16 0)
(3 -4.32313e-16 0)
(3 2.44816e-17 0)
(3 -1.62176e-16 0)
(3 -1.95604e-16 0)
(3 -6.73994e-16 0)
(3 -7.3449e-16 0)
(3 -1.33465e-16 0)
(3 1.98933e-16 0)
(3 2.84043e-16 0)
(3 -1.74318e-16 0)
(3 -2.5313e-16 0)
(3 1.33513e-16 0)
(3 1.30705e-16 0)
(3 2.67362e-17 0)
(3 -1.03474e-16 0)
(3 -2.11211e-16 0)
(3 -2.41984e-16 0)
(3 -1.34001e-16 0)
(3 -2.30831e-16 0)
(3 -6.77811e-16 0)
(3 -1.08974e-15 0)
(3 -1.63265e-15 0)
(3 -1.63103e-15 0)
(3 -2.25293e-15 0)
(3 -1.87876e-15 0)
(3 -1.80883e-15 0)
(3 -1.40248e-15 0)
(3 -1.42623e-15 0)
(3 -1.71591e-15 0)
(3 1.23996e-16 0)
(3 -4.54235e-17 0)
(3 -2.58863e-16 0)
(3 -3.27048e-16 0)
(3 1.78634e-17 0)
(3 1.38425e-15 0)
(3 1.62969e-15 0)
(3 1.84548e-15 0)
(3 1.48558e-15 0)
(3 5.85568e-16 0)
(3 -1.51404e-16 0)
(3 -2.24519e-16 0)
(3 1.57837e-16 0)
(3 2.85112e-16 0)
(3 7.51504e-16 0)
(3 1.2595e-15 0)
(3 1.59055e-15 0)
(3 1.72655e-15 0)
(3 1.22678e-15 0)
(3 1.24954e-15 0)
(3 8.10431e-16 0)
(3 1.22008e-16 0)
(3 -5.39443e-16 0)
(3 -4.66209e-16 0)
(3 -5.79188e-16 0)
(3 -2.11984e-16 0)
(3 -1.31123e-16 0)
(3 -6.52942e-16 0)
(3 -7.40118e-16 0)
(3 -1.25194e-16 0)
(3 -3.08347e-16 0)
(3 -2.65992e-16 0)
(3 -3.49771e-16 0)
(3 -2.7361e-17 0)
(3 2.12156e-17 0)
(3 -5.20979e-18 0)
(3 3.56163e-16 0)
(3 1.17446e-15 0)
(3 1.62701e-15 0)
(3 1.83659e-15 0)
(3 1.16486e-15 0)
(3 5.62649e-16 0)
(3 5.50213e-16 0)
(3 6.20008e-16 0)
(3 1.01568e-15 0)
(3 1.80411e-15 0)
(3 1.34406e-15 0)
(3 1.05981e-15 0)
(3 8.53984e-16 0)
(3 8.87134e-16 0)
(3 1.05386e-15 0)
(3 6.43074e-16 0)
(3 3.50518e-16 0)
(3 -4.33036e-17 0)
(3 1.44702e-16 0)
(3 8.0899e-16 0)
(3 7.33755e-16 0)
(3 1.11579e-15 0)
(3 6.41913e-16 0)
(3 -9.61558e-16 0)
(3 -1.99125e-15 0)
(3 -1.81005e-15 0)
(3 -5.15993e-16 0)
(3 -3.99009e-16 0)
(3 -4.05764e-16 0)
(3 -5.25262e-16 0)
(3 -1.77801e-16 0)
(3 7.01901e-16 0)
(3 1.45757e-15 0)
(3 9.49466e-16 0)
(3 7.77948e-17 0)
(3 -5.51183e-16 0)
(3 -1.64814e-16 0)
(3 -5.76139e-16 0)
(3 -2.36602e-16 0)
(3 -9.05349e-17 0)
(3 4.07995e-16 0)
(3 2.09576e-16 0)
(3 6.4923e-17 0)
(3 2.05186e-16 0)
(3 5.54638e-16 0)
(3 9.93324e-16 0)
(3 5.74943e-16 0)
(3 -4.18997e-17 0)
(3 -5.14106e-16 0)
(3 -1.2457e-15 0)
(3 -1.63645e-15 0)
(3 -2.22607e-15 0)
(3 -1.70263e-15 0)
(3 -1.15104e-15 0)
(3 -4.56997e-16 0)
(3 -1.23911e-16 0)
(3 -3.37487e-16 0)
(3 -6.17492e-16 0)
(3 -4.93231e-16 0)
(3 -1.60327e-16 0)
(3 1.18695e-16 0)
(3 -2.71722e-16 0)
(3 -2.62123e-16 0)
(3 -9.07251e-16 0)
(3 -2.53558e-16 0)
(3 1.11252e-15 0)
(3 1.06001e-15 0)
(3 7.73921e-16 0)
(3 4.35679e-16 0)
(3 3.40113e-16 0)
(3 -1.35781e-16 0)
(3 2.80815e-17 0)
(3 3.68239e-16 0)
(3 9.15616e-16 0)
(3 1.02455e-15 0)
(3 1.29586e-15 0)
(3 1.20753e-15 0)
(3 9.02202e-16 0)
(3 8.16132e-16 0)
(3 6.23703e-16 0)
(3 7.33158e-16 0)
(3 8.76238e-16 0)
(3 6.43536e-16 0)
(3 1.07182e-16 0)
(3 -8.17805e-18 0)
(3 7.90932e-16 0)
(3 1.13773e-15 0)
(3 9.3309e-16 0)
(3 3.34354e-16 0)
(3 3.94779e-16 0)
(3 4.87699e-16 0)
(3 2.71656e-16 0)
(3 -4.32412e-16 0)
(3 -3.50633e-16 0)
(3 -6.94213e-17 0)
(3 1.42746e-16 0)
(3 9.1048e-16 0)
(3 1.04529e-15 0)
(3 1.15231e-15 0)
(3 1.26098e-15 0)
(3 1.28714e-15 0)
(3 1.01623e-15 0)
(3 1.20314e-15 0)
(3 1.43579e-15 0)
(3 1.14691e-15 0)
(3 1.69028e-15 0)
(3 2.15686e-15 0)
(3 1.20487e-15 0)
(3 9.62041e-16 0)
(3 8.10824e-16 0)
(3 3.61841e-16 0)
(3 9.85725e-17 0)
(3 -1.15091e-15 0)
(3 -2.24269e-15 0)
(3 -1.88364e-15 0)
(3 -1.28613e-15 0)
(3 -6.84644e-16 0)
(3 -5.70637e-16 0)
(3 -1.06613e-15 0)
(3 -8.24288e-16 0)
(3 -6.91312e-16 0)
(3 -1.08044e-15 0)
(3 5.60955e-16 0)
(3 1.38401e-15 0)
(3 1.21705e-15 0)
(3 1.49092e-15 0)
(3 1.59542e-15 0)
(3 1.76187e-15 0)
(3 1.8073e-15 0)
(3 1.72298e-15 0)
(3 -1.4926e-16 0)
(3 -1.01678e-15 0)
(3 -9.76494e-16 0)
(3 -4.09512e-16 0)
(3 -2.45849e-16 0)
(3 -8.41634e-18 0)
(3 2.59417e-16 0)
(3 1.2495e-15 0)
(3 1.33642e-15 0)
(3 1.03126e-15 0)
(3 8.79643e-16 0)
(3 1.31265e-15 0)
(3 1.29249e-15 0)
(3 5.6178e-16 0)
(3 -8.19711e-16 0)
(3 -1.16761e-15 0)
(3 -1.37598e-15 0)
(3 -1.39873e-15 0)
(3 -1.19733e-15 0)
(3 -9.6595e-16 0)
(3 1.61702e-16 0)
(3 1.25475e-15 0)
(3 1.12518e-15 0)
(3 5.58649e-16 0)
(3 -4.50021e-16 0)
(3 -9.84354e-16 0)
(3 -2.40897e-16 0)
(3 -1.7121e-16 0)
(3 7.80042e-17 0)
(3 6.78961e-16 0)
(3 7.52612e-16 0)
(3 6.95958e-16 0)
(3 3.58828e-16 0)
(3 5.54681e-16 0)
(3 1.3186e-16 0)
(3 1.87189e-16 0)
(3 9.57201e-17 0)
(3 -2.95625e-16 0)
(3 -4.31058e-16 0)
(3 1.9928e-17 0)
(3 1.97386e-16 0)
(3 9.31457e-16 0)
(3 1.46279e-15 0)
(3 1.29828e-15 0)
(3 1.20553e-15 0)
(3 9.50996e-16 0)
(3 6.54138e-16 0)
(3 6.08756e-16 0)
(3 1.08063e-15 0)
(3 1.25776e-15 0)
(3 1.96004e-15 0)
(3 2.38704e-15 0)
(3 3.10674e-15 0)
(3 2.69264e-15 0)
(3 1.64453e-15 0)
(3 1.0638e-15 0)
(3 5.41994e-16 0)
(3 -3.96604e-16 0)
(3 -3.2725e-16 0)
(3 -1.59594e-16 0)
(3 6.48105e-16 0)
(3 1.02059e-15 0)
(3 7.07778e-16 0)
(3 9.64167e-18 0)
(3 4.27036e-16 0)
(3 4.12642e-16 0)
(3 5.51326e-16 0)
(3 9.25581e-16 0)
(3 1.10901e-15 0)
(3 1.14617e-15 0)
(3 5.85762e-16 0)
(3 4.33698e-16 0)
(3 3.6861e-16 0)
(3 1.39725e-16 0)
(3 7.31067e-17 0)
(3 6.16462e-17 0)
(3 -2.10176e-16 0)
(3 -5.15046e-16 0)
(3 -1.31592e-15 0)
(3 -2.15879e-15 0)
(3 -2.15444e-15 0)
(3 -1.3619e-15 0)
(3 -3.86382e-16 0)
(3 -7.72852e-17 0)
(3 -3.08981e-17 0)
(3 -5.632e-16 0)
(3 -6.88325e-18 0)
(3 3.25268e-16 0)
(3 1.69744e-15 0)
(3 2.26061e-15 0)
(3 2.38645e-15 0)
(3 1.83232e-15 0)
(3 1.35509e-15 0)
(3 1.04988e-15 0)
(3 7.18958e-16 0)
(3 5.36608e-16 0)
(3 -2.55165e-16 0)
(3 -1.44332e-15 0)
(3 -1.95536e-15 0)
(3 -1.02868e-15 0)
(3 -5.55054e-16 0)
(3 -2.79474e-16 0)
(3 9.71856e-17 0)
(3 4.67129e-16 0)
(3 1.61347e-16 0)
(3 -2.9859e-16 0)
(3 -1.73976e-16 0)
(3 -2.12383e-16 0)
(3 -2.30262e-16 0)
(3 -3.24761e-16 0)
(3 -1.09412e-15 0)
(3 -2.19021e-15 0)
(3 -2.46548e-15 0)
(3 -1.82104e-15 0)
(3 -8.99418e-16 0)
(3 -5.51169e-16 0)
(3 1.52616e-17 0)
(3 1.7181e-16 0)
(3 6.68952e-16 0)
(3 1.11161e-15 0)
(3 9.33199e-16 0)
(3 9.71447e-16 0)
(3 -1.11341e-16 0)
(3 4.3638e-17 0)
(3 2.52333e-16 0)
(3 1.14353e-15 0)
(3 1.40987e-15 0)
(3 1.00359e-15 0)
(3 1.62633e-15 0)
(3 1.11453e-15 0)
(3 2.79733e-16 0)
(3 3.38506e-16 0)
(3 1.50652e-16 0)
(3 -5.97689e-16 0)
(3 -1.05039e-15 0)
(3 -8.39255e-16 0)
(3 -3.01414e-16 0)
(3 2.54836e-16 0)
(3 3.57957e-16 0)
(3 6.23042e-16 0)
(3 6.38985e-16 0)
(3 4.8887e-16 0)
(3 -1.15815e-16 0)
(3 -3.33064e-19 0)
(3 1.05249e-15 0)
(3 2.53943e-15 0)
(3 3.41907e-15 0)
(3 3.09233e-15 0)
(3 2.56152e-15 0)
(3 2.69141e-15 0)
(3 2.38503e-15 0)
(3 1.49877e-15 0)
(3 1.36494e-16 0)
(3 -3.8132e-16 0)
(3 1.93395e-17 0)
(3 6.25051e-16 0)
(3 6.56403e-16 0)
(3 1.23657e-15 0)
(3 1.77179e-15 0)
(3 1.27202e-15 0)
(3 4.70143e-16 0)
(3 5.59447e-16 0)
(3 8.09299e-16 0)
(3 1.0271e-15 0)
(3 8.65448e-16 0)
(3 4.64113e-16 0)
(3 2.10869e-17 0)
(3 -2.48309e-16 0)
(3 -1.16424e-15 0)
(3 -9.41258e-16 0)
(3 -1.16972e-15 0)
(3 -1.3097e-15 0)
(3 -1.0951e-15 0)
(3 -1.08683e-15 0)
(3 -1.2371e-15 0)
(3 -9.77235e-16 0)
(3 -1.12947e-15 0)
(3 -5.84055e-16 0)
(3 -3.53893e-16 0)
(3 6.83252e-16 0)
(3 1.41044e-15 0)
(3 4.57205e-16 0)
(3 -3.16112e-16 0)
(3 1.10409e-15 0)
(3 2.09974e-15 0)
(3 2.16701e-15 0)
(3 2.48561e-15 0)
(3 1.87805e-15 0)
(3 1.23896e-15 0)
(3 -1.01142e-16 0)
(3 -6.06866e-16 0)
(3 -1.13456e-15 0)
(3 -2.37893e-15 0)
(3 -2.50663e-15 0)
(3 -1.77922e-15 0)
(3 -1.16948e-15 0)
(3 -2.97823e-16 0)
(3 2.09879e-16 0)
(3 6.5799e-16 0)
(3 2.30238e-16 0)
(3 7.87373e-17 0)
(3 -2.45324e-17 0)
(3 -3.45591e-16 0)
(3 -5.97688e-16 0)
(3 -1.19273e-15 0)
(3 -1.42144e-15 0)
(3 -7.03421e-16 0)
(3 -4.61616e-16 0)
(3 -3.13616e-16 0)
(3 5.78261e-16 0)
(3 3.78714e-16 0)
(3 -2.90917e-16 0)
(3 -6.65224e-16 0)
(3 -7.86392e-16 0)
(3 -4.06575e-16 0)
(3 2.50168e-16 0)
(3 2.02312e-15 0)
(3 2.76821e-15 0)
(3 2.16794e-16 0)
(3 1.28201e-16 0)
(3 2.4026e-16 0)
(3 7.33675e-17 0)
(3 1.26841e-16 0)
(3 2.76037e-16 0)
(3 1.93629e-16 0)
(3 -6.87506e-17 0)
(3 1.55485e-16 0)
(3 7.56706e-17 0)
(3 -4.9296e-16 0)
(3 -1.05696e-15 0)
(3 -1.30976e-15 0)
(3 -1.20762e-15 0)
(3 -1.20496e-15 0)
(3 -1.41374e-15 0)
(3 -1.10113e-15 0)
(3 -8.50258e-16 0)
(3 -3.83378e-16 0)
(3 3.77044e-16 0)
(3 4.93239e-16 0)
(3 2.85693e-16 0)
(3 5.83919e-16 0)
(3 1.02892e-15 0)
(3 1.74469e-15 0)
(3 1.54246e-15 0)
(3 1.25218e-15 0)
(3 1.50931e-15 0)
(3 1.81265e-15 0)
(3 1.78669e-15 0)
(3 1.5608e-15 0)
(3 1.47199e-15 0)
(3 8.23382e-16 0)
(3 4.02489e-16 0)
(3 1.76668e-16 0)
(3 4.94331e-16 0)
(3 7.14573e-16 0)
(3 7.94409e-16 0)
(3 -2.18715e-18 0)
(3 1.92755e-17 0)
(3 5.89526e-16 0)
(3 7.37569e-16 0)
(3 4.30276e-16 0)
(3 4.43195e-16 0)
(3 7.35409e-18 0)
(3 -7.00146e-16 0)
(3 -9.35075e-16 0)
(3 -1.33726e-15 0)
(3 -2.18547e-15 0)
(3 -3.12274e-15 0)
(3 -3.038e-15 0)
(3 -2.29775e-15 0)
(3 -8.03801e-16 0)
(3 3.20092e-16 0)
(3 -3.65319e-16 0)
(3 -1.47653e-15 0)
(3 -1.43503e-15 0)
(3 -7.50574e-16 0)
(3 7.65403e-16 0)
(3 2.18796e-15 0)
(3 2.70758e-15 0)
(3 2.37835e-15 0)
(3 2.18382e-15 0)
(3 1.9682e-15 0)
(3 2.27339e-15 0)
(3 2.50574e-15 0)
(3 2.50934e-15 0)
(3 1.32162e-15 0)
(3 -5.43652e-16 0)
(3 -1.40141e-15 0)
(3 -1.28881e-15 0)
(3 -1.2705e-15 0)
(3 -6.08923e-16 0)
(3 -3.13169e-16 0)
(3 7.14689e-16 0)
(3 1.25138e-16 0)
(3 -6.74805e-17 0)
(3 7.68878e-17 0)
(3 5.59769e-16 0)
(3 5.51523e-16 0)
(3 1.07116e-16 0)
(3 -5.77104e-17 0)
(3 -5.25354e-16 0)
(3 -1.8638e-15 0)
(3 -1.74016e-15 0)
(3 -9.04262e-16 0)
(3 -2.39856e-17 0)
(3 1.08521e-15 0)
(3 1.08896e-15 0)
(3 2.2762e-16 0)
(3 -2.13142e-16 0)
(3 -2.68291e-16 0)
(3 -6.23917e-16 0)
(3 -4.29166e-16 0)
(3 2.91233e-16 0)
(3 7.93587e-16 0)
(3 2.23778e-17 0)
(3 1.13884e-16 0)
(3 -1.48531e-16 0)
(3 -1.85065e-15 0)
(3 -2.87536e-15 0)
(3 -2.56701e-15 0)
(3 -2.11615e-15 0)
(3 -1.18877e-15 0)
(3 -8.12518e-16 0)
(3 -9.23155e-16 0)
(3 -1.52869e-15 0)
(3 -6.45995e-16 0)
(3 -4.49063e-16 0)
(3 -8.74019e-16 0)
(3 -1.60404e-15 0)
(3 -1.65713e-15 0)
(3 -1.81208e-15 0)
(3 -1.46418e-15 0)
(3 -1.40435e-15 0)
(3 -5.98822e-16 0)
(3 -2.56764e-16 0)
(3 -3.46911e-16 0)
(3 -8.48938e-16 0)
(3 -1.07935e-15 0)
(3 -1.20966e-15 0)
(3 -1.03974e-15 0)
(3 -8.69847e-16 0)
(3 -2.03647e-16 0)
(3 -1.96031e-16 0)
(3 6.30549e-17 0)
(3 -4.51999e-17 0)
(3 -2.82169e-16 0)
(3 -4.29306e-16 0)
(3 -6.20197e-16 0)
(3 -4.01752e-16 0)
(3 -2.94151e-16 0)
(3 -3.01609e-16 0)
(3 -2.03294e-16 0)
(3 1.60485e-16 0)
(3 -5.16107e-17 0)
(3 -8.66153e-16 0)
(3 -9.65341e-16 0)
(3 -8.56636e-16 0)
(3 -6.98725e-16 0)
(3 -9.26713e-16 0)
(3 -1.19779e-15 0)
(3 -9.58865e-16 0)
(3 -1.26001e-15 0)
(3 -1.66979e-15 0)
(3 -1.95303e-15 0)
(3 -2.85045e-15 0)
(3 -2.52784e-15 0)
(3 -1.3238e-15 0)
(3 -1.04924e-15 0)
(3 -9.67951e-16 0)
(3 -1.39932e-15 0)
(3 -1.66061e-15 0)
(3 -6.58896e-16 0)
(3 8.99161e-16 0)
(3 3.14326e-15 0)
(3 4.36765e-15 0)
(3 3.91032e-15 0)
(3 3.20682e-15 0)
(3 2.83737e-15 0)
(3 2.07467e-15 0)
(3 2.04243e-15 0)
(3 1.48952e-15 0)
(3 7.54239e-16 0)
(3 1.70808e-16 0)
(3 2.89871e-16 0)
(3 1.12628e-15 0)
(3 1.70137e-15 0)
(3 1.57768e-15 0)
(3 7.07389e-16 0)
(3 5.75281e-16 0)
(3 4.9627e-16 0)
(3 5.91709e-16 0)
(3 7.62503e-16 0)
(3 7.87418e-16 0)
(3 5.80109e-16 0)
(3 2.8639e-17 0)
(3 -1.84304e-16 0)
(3 -1.22738e-15 0)
(3 -2.32953e-15 0)
(3 -2.61922e-15 0)
(3 -1.61338e-15 0)
(3 2.03174e-16 0)
(3 4.93092e-16 0)
(3 1.1314e-15 0)
(3 1.08591e-15 0)
(3 8.38102e-16 0)
(3 9.13239e-16 0)
(3 5.36703e-16 0)
(3 1.96935e-16 0)
(3 3.87828e-16 0)
(3 6.70352e-16 0)
(3 -2.89446e-17 0)
(3 1.92015e-16 0)
(3 -3.9177e-16 0)
(3 -7.7473e-16 0)
(3 -1.6867e-15 0)
(3 -1.92809e-15 0)
(3 -1.19356e-15 0)
(3 -7.3625e-16 0)
(3 -2.67972e-16 0)
(3 -2.65771e-17 0)
(3 2.33531e-16 0)
(3 1.75785e-16 0)
(3 -3.44528e-16 0)
(3 -6.7524e-16 0)
(3 -8.75545e-16 0)
(3 -1.55657e-15 0)
(3 -1.64938e-15 0)
(3 -1.11868e-15 0)
(3 -1.23084e-15 0)
(3 -1.10812e-15 0)
(3 -5.75286e-17 0)
(3 4.82134e-16 0)
(3 -2.70924e-16 0)
(3 -1.35104e-15 0)
(3 -1.60276e-15 0)
(3 -1.2548e-15 0)
(3 -5.98925e-16 0)
(3 -5.79433e-16 0)
(3 -8.5822e-16 0)
(3 -8.45563e-16 0)
(3 -6.15581e-16 0)
(3 -9.88935e-16 0)
(3 -1.04544e-15 0)
(3 -1.41155e-15 0)
(3 -1.55359e-15 0)
(3 -1.63847e-15 0)
(3 -1.31649e-15 0)
(3 -1.56904e-15 0)
(3 -1.47994e-15 0)
(3 -1.53641e-15 0)
(3 -1.36752e-15 0)
(3 -2.16339e-15 0)
(3 -2.39849e-15 0)
(3 -2.24326e-15 0)
(3 -1.77153e-15 0)
(3 -9.29738e-16 0)
(3 -6.84083e-16 0)
(3 -1.00431e-15 0)
(3 -1.5036e-15 0)
(3 -1.61782e-15 0)
(3 -1.70252e-15 0)
(3 -1.62956e-15 0)
(3 -1.71229e-15 0)
(3 -1.46165e-15 0)
(3 -3.66794e-16 0)
(3 2.68301e-16 0)
(3 3.77896e-16 0)
(3 2.25417e-15 0)
(3 2.56081e-15 0)
(3 2.781e-15 0)
(3 2.76851e-15 0)
(3 2.77511e-15 0)
(3 2.01857e-15 0)
(3 1.61897e-15 0)