/*--------------------------------*- C++ -*----------------------------------*\
  =========                 |
  \\      /  F ield         | OpenFOAM: The Open Source CFD Toolbox
   \\    /   O peration     | Website:  https://openfoam.org
    \\  /    A nd           | Version:  7
     \\/     M anipulation  |
\*---------------------------------------------------------------------------*/
FoamFile
{
    version     2.0;
    format      ascii;
    class       volVectorField;
    location    "1.9";
    object      U;
}
// * * * * * * * * * * * * * * * * * * * * * * * * * * * * * * * * * * * * * //

dimensions      [0 1 -1 0 0 0 0];

internalField   nonuniform List<vector> 
73728
(
(3 -1.79001e-16 0)
(3 -2.24733e-16 0)
(3 -5.61116e-17 0)
(3 2.48232e-17 0)
(3 1.46515e-17 0)
(3 2.34041e-16 0)
(3 2.30094e-16 0)
(3 2.94227e-16 0)
(3 1.45633e-16 0)
(3 7.45759e-17 0)
(3 -3.08432e-16 0)
(3 -3.7095e-16 0)
(3 -5.6991e-16 0)
(3 -5.10476e-16 0)
(3 -3.71083e-16 0)
(3 -5.81656e-16 0)
(3 4.19879e-16 0)
(3 8.45138e-16 0)
(3 5.86091e-16 0)
(3 2.86341e-16 0)
(3 -2.19731e-16 0)
(3 -7.49405e-17 0)
(3 2.79299e-16 0)
(3 7.70027e-16 0)
(3 1.0149e-15 0)
(3 1.67271e-15 0)
(3 1.97028e-15 0)
(3 1.86727e-15 0)
(3 1.36699e-15 0)
(3 7.7742e-16 0)
(3 2.39042e-16 0)
(3 8.98341e-17 0)
(3 1.26281e-16 0)
(3 7.85183e-17 0)
(3 1.84775e-16 0)
(3 5.95657e-16 0)
(3 6.29698e-16 0)
(3 9.0649e-16 0)
(3 1.6184e-15 0)
(3 1.3631e-15 0)
(3 1.04918e-15 0)
(3 2.87979e-16 0)
(3 -2.84946e-16 0)
(3 -4.71372e-16 0)
(3 -6.84484e-16 0)
(3 -5.54788e-16 0)
(3 -7.45047e-16 0)
(3 -1.16699e-15 0)
(3 -1.25389e-15 0)
(3 -1.16189e-15 0)
(3 -8.42807e-16 0)
(3 -4.53355e-16 0)
(3 7.73005e-16 0)
(3 6.44987e-16 0)
(3 1.29301e-15 0)
(3 2.32531e-15 0)
(3 2.88874e-15 0)
(3 2.19715e-15 0)
(3 2.12358e-15 0)
(3 1.64193e-15 0)
(3 1.37663e-15 0)
(3 1.26416e-16 0)
(3 -6.98179e-16 0)
(3 -1.61431e-15 0)
(3 -1.51338e-15 0)
(3 -1.60979e-15 0)
(3 -1.53255e-15 0)
(3 -1.46707e-15 0)
(3 -1.51655e-15 0)
(3 -1.0841e-15 0)
(3 -1.16328e-15 0)
(3 -6.21822e-16 0)
(3 4.84715e-16 0)
(3 8.67333e-16 0)
(3 5.04385e-16 0)
(3 -4.49969e-17 0)
(3 -2.44139e-16 0)
(3 -4.48557e-16 0)
(3 -1.21497e-15 0)
(3 -2.22505e-15 0)
(3 -2.03455e-15 0)
(3 -1.27899e-15 0)
(3 4.88254e-16 0)
(3 1.85537e-15 0)
(3 1.61885e-15 0)
(3 1.51901e-15 0)
(3 1.23133e-15 0)
(3 1.53312e-15 0)
(3 8.67118e-16 0)
(3 8.09999e-16 0)
(3 6.46244e-16 0)
(3 2.95218e-16 0)
(3 -4.43106e-16 0)
(3 -5.80547e-16 0)
(3 -3.21382e-16 0)
(3 -6.75148e-16 0)
(3 -7.09085e-17 0)
(3 3.81796e-17 0)
(3 -2.81563e-16 0)
(3 -7.36936e-17 0)
(3 -1.05311e-16 0)
(3 7.56618e-16 0)
(3 1.18161e-15 0)
(3 1.04768e-15 0)
(3 8.70295e-16 0)
(3 5.24599e-16 0)
(3 -1.83205e-17 0)
(3 -4.5414e-18 0)
(3 -1.91766e-16 0)
(3 -3.29455e-17 0)
(3 -2.17978e-17 0)
(3 -7.05958e-17 0)
(3 5.30989e-16 0)
(3 1.00898e-15 0)
(3 8.68213e-16 0)
(3 5.65346e-16 0)
(3 -8.11344e-16 0)
(3 -1.13986e-15 0)
(3 -2.12813e-16 0)
(3 1.17949e-15 0)
(3 1.9922e-15 0)
(3 2.1539e-15 0)
(3 2.64229e-15 0)
(3 2.21994e-15 0)
(3 1.34365e-15 0)
(3 6.28622e-16 0)
(3 4.36012e-16 0)
(3 9.1581e-17 0)
(3 2.39344e-16 0)
(3 3.82941e-16 0)
(3 1.05588e-15 0)
(3 2.00758e-15 0)
(3 2.04498e-15 0)
(3 1.84506e-15 0)
(3 1.53244e-15 0)
(3 1.30904e-15 0)
(3 1.25406e-15 0)
(3 7.4398e-16 0)
(3 1.11844e-16 0)
(3 -1.4707e-16 0)
(3 -3.30949e-16 0)
(3 7.22132e-17 0)
(3 -1.17506e-16 0)
(3 -1.58676e-15 0)
(3 -1.78128e-15 0)
(3 -1.07867e-15 0)
(3 8.45739e-16 0)
(3 2.01135e-15 0)
(3 2.31454e-15 0)
(3 2.17348e-15 0)
(3 2.7211e-15 0)
(3 3.65802e-15 0)
(3 3.36947e-15 0)
(3 2.3294e-15 0)
(3 1.44886e-15 0)
(3 9.50956e-16 0)
(3 3.52687e-16 0)
(3 -9.35713e-16 0)
(3 -2.64342e-15 0)
(3 -3.89387e-15 0)
(3 -4.0066e-15 0)
(3 -3.48667e-15 0)
(3 -1.97951e-15 0)
(3 -9.57338e-16 0)
(3 -5.46387e-16 0)
(3 -4.07163e-16 0)
(3 -7.08957e-16 0)
(3 5.35344e-16 0)
(3 1.18761e-15 0)
(3 1.38696e-15 0)
(3 8.97274e-16 0)
(3 2.66449e-16 0)
(3 -8.17033e-16 0)
(3 -9.92113e-16 0)
(3 -1.82979e-15 0)
(3 -2.15034e-15 0)
(3 -1.94001e-15 0)
(3 -1.53539e-15 0)
(3 -6.28208e-16 0)
(3 1.12902e-15 0)
(3 2.85277e-15 0)
(3 3.659e-15 0)
(3 3.74889e-15 0)
(3 4.10429e-15 0)
(3 3.48377e-15 0)
(3 2.90751e-15 0)
(3 2.59907e-15 0)
(3 2.16504e-15 0)
(3 1.17699e-15 0)
(3 6.56911e-16 0)
(3 6.38518e-17 0)
(3 -1.99866e-16 0)
(3 2.56601e-16 0)
(3 2.4952e-16 0)
(3 1.38384e-17 0)
(3 -1.63411e-16 0)
(3 1.11359e-16 0)
(3 3.42709e-16 0)
(3 6.8806e-16 0)
(3 5.30725e-16 0)
(3 2.98248e-16 0)
(3 8.65076e-17 0)
(3 1.67805e-18 0)
(3 3.50568e-17 0)
(3 5.84635e-16 0)
(3 3.70294e-16 0)
(3 -2.64475e-16 0)
(3 -1.24527e-16 0)
(3 1.76615e-16 0)
(3 -2.77333e-17 0)
(3 -5.93134e-16 0)
(3 -1.10218e-15 0)
(3 -1.2918e-15 0)
(3 -1.26721e-15 0)
(3 -6.00028e-16 0)
(3 2.17908e-17 0)
(3 1.06675e-15 0)
(3 1.80971e-15 0)
(3 1.741e-15 0)
(3 1.01906e-15 0)
(3 5.20666e-16 0)
(3 7.93834e-16 0)
(3 1.03149e-15 0)
(3 8.11104e-16 0)
(3 7.5842e-16 0)
(3 1.32176e-16 0)
(3 -2.1654e-16 0)
(3 -4.44291e-16 0)
(3 -3.45525e-16 0)
(3 4.51292e-16 0)
(3 -4.00863e-16 0)
(3 -7.2681e-17 0)
(3 9.77235e-17 0)
(3 2.53641e-16 0)
(3 -1.21136e-16 0)
(3 -1.10603e-15 0)
(3 -1.01461e-15 0)
(3 -5.26353e-16 0)
(3 -2.69783e-16 0)
(3 -4.017e-16 0)
(3 -2.69136e-16 0)
(3 2.15061e-16 0)
(3 6.56874e-16 0)
(3 8.09301e-16 0)
(3 1.24748e-15 0)
(3 1.02477e-15 0)
(3 1.04948e-15 0)
(3 1.55499e-15 0)
(3 2.44014e-15 0)
(3 2.94095e-15 0)
(3 1.2964e-15 0)
(3 -1.96424e-15 0)
(3 -3.12999e-15 0)
(3 -3.0057e-15 0)
(3 -3.90215e-15 0)
(3 -4.27856e-15 0)
(3 -4.36724e-15 0)
(3 -3.74642e-15 0)
(3 -2.40678e-15 0)
(3 -9.13623e-16 0)
(3 1.56159e-15 0)
(3 1.72445e-15 0)
(3 2.12411e-15 0)
(3 2.99357e-15 0)
(3 3.00587e-15 0)
(3 2.6686e-15 0)
(3 2.83634e-15 0)
(3 2.92919e-15 0)
(3 2.05661e-15 0)
(3 1.31362e-15 0)
(3 1.28354e-15 0)
(3 1.27859e-15 0)
(3 5.92259e-16 0)
(3 -3.33467e-16 0)
(3 -4.08266e-16 0)
(3 3.37823e-16 0)
(3 2.58073e-15 0)
(3 3.88562e-15 0)
(3 5.27995e-15 0)
(3 4.98937e-15 0)
(3 5.4365e-15 0)
(3 5.18463e-15 0)
(3 3.78903e-15 0)
(3 3.09528e-15 0)
(3 3.15688e-15 0)
(3 2.50427e-15 0)
(3 1.27513e-15 0)
(3 1.10738e-15 0)
(3 -4.105e-17 0)
(3 -1.46562e-16 0)
(3 2.82162e-16 0)
(3 5.20119e-16 0)
(3 6.13884e-16 0)
(3 -2.65115e-16 0)
(3 -8.13943e-16 0)
(3 -7.16792e-16 0)
(3 -6.67228e-16 0)
(3 -4.59063e-16 0)
(3 -2.06816e-16 0)
(3 4.31967e-16 0)
(3 9.02594e-16 0)
(3 4.88221e-16 0)
(3 1.49068e-16 0)
(3 3.47334e-16 0)
(3 2.77669e-16 0)
(3 2.4414e-16 0)
(3 -7.59146e-16 0)
(3 -1.6207e-15 0)
(3 -1.62173e-15 0)
(3 -1.87451e-15 0)
(3 -1.49839e-15 0)
(3 -1.18879e-15 0)
(3 -5.36295e-16 0)
(3 7.34672e-17 0)
(3 -2.48847e-16 0)
(3 -9.5381e-16 0)
(3 -1.19394e-15 0)
(3 -3.50792e-16 0)
(3 6.27845e-16 0)
(3 2.4309e-16 0)
(3 -2.51759e-16 0)
(3 -6.03839e-16 0)
(3 -1.82379e-15 0)
(3 -1.71486e-15 0)
(3 -3.84824e-16 0)
(3 1.84379e-15 0)
(3 1.76699e-15 0)
(3 1.30342e-16 0)
(3 -4.18545e-16 0)
(3 -7.80045e-16 0)
(3 -1.14814e-15 0)
(3 -1.5375e-15 0)
(3 -1.22983e-15 0)
(3 -8.51464e-16 0)
(3 -4.03037e-17 0)
(3 1.42631e-15 0)
(3 2.10576e-15 0)
(3 1.02649e-15 0)
(3 -1.58062e-16 0)
(3 -4.03487e-16 0)
(3 -9.08015e-17 0)
(3 -1.93625e-16 0)
(3 -5.98265e-16 0)
(3 -5.09993e-16 0)
(3 9.06295e-16 0)
(3 6.55956e-16 0)
(3 1.93055e-16 0)
(3 -5.16258e-16 0)
(3 -2.73763e-15 0)
(3 -3.64247e-15 0)
(3 -4.73255e-15 0)
(3 -5.60956e-15 0)
(3 -5.04604e-15 0)
(3 -3.75673e-15 0)
(3 -2.73643e-15 0)
(3 -2.78042e-15 0)
(3 -1.12596e-15 0)
(3 1.51136e-15 0)
(3 2.08171e-15 0)
(3 1.45025e-15 0)
(3 1.88797e-15 0)
(3 1.53211e-15 0)
(3 2.1079e-15 0)
(3 3.19771e-15 0)
(3 3.31938e-15 0)
(3 2.84584e-15 0)
(3 2.01735e-15 0)
(3 2.14386e-15 0)
(3 1.9838e-15 0)
(3 1.83631e-15 0)
(3 1.41849e-15 0)
(3 2.7991e-15 0)
(3 3.46929e-15 0)
(3 4.32053e-15 0)
(3 4.26306e-15 0)
(3 3.60868e-15 0)
(3 2.63232e-15 0)
(3 2.58928e-15 0)
(3 2.51325e-15 0)
(3 2.54143e-16 0)
(3 6.18834e-17 0)
(3 3.03792e-16 0)
(3 6.7132e-16 0)
(3 -6.79691e-17 0)
(3 -4.39092e-16 0)
(3 1.75904e-16 0)
(3 7.12895e-16 0)
(3 1.19546e-15 0)
(3 1.01814e-15 0)
(3 8.95132e-16 0)
(3 3.8933e-16 0)
(3 -5.06488e-16 0)
(3 -1.33119e-15 0)
(3 -1.21889e-15 0)
(3 -9.71871e-16 0)
(3 -5.40828e-16 0)
(3 -3.51566e-16 0)
(3 6.51175e-16 0)
(3 1.2015e-15 0)
(3 9.69257e-16 0)
(3 2.11292e-16 0)
(3 2.30095e-16 0)
(3 1.00418e-16 0)
(3 -1.50276e-16 0)
(3 -1.04079e-15 0)
(3 -1.59016e-15 0)
(3 -1.69e-15 0)
(3 -1.49225e-15 0)
(3 -1.53778e-15 0)
(3 -1.99339e-15 0)
(3 -2.54629e-15 0)
(3 -2.43001e-15 0)
(3 -2.16141e-15 0)
(3 -2.52192e-15 0)
(3 -2.39704e-15 0)
(3 -2.42865e-15 0)
(3 -2.44613e-15 0)
(3 -1.28174e-15 0)
(3 -1.19705e-16 0)
(3 9.35397e-17 0)
(3 5.57856e-16 0)
(3 8.99994e-16 0)
(3 1.31736e-15 0)
(3 7.54099e-16 0)
(3 8.92148e-16 0)
(3 -3.70423e-17 0)
(3 -4.07028e-16 0)
(3 -1.49368e-16 0)
(3 1.39803e-16 0)
(3 5.8572e-17 0)
(3 6.9104e-16 0)
(3 2.40205e-15 0)
(3 2.58108e-15 0)
(3 3.28517e-15 0)
(3 2.76472e-15 0)
(3 1.60036e-15 0)
(3 8.7354e-16 0)
(3 -7.23152e-16 0)
(3 -2.15381e-15 0)
(3 -2.29442e-15 0)
(3 -2.61575e-15 0)
(3 -2.0922e-15 0)
(3 -5.03904e-16 0)
(3 1.59973e-17 0)
(3 -3.35852e-16 0)
(3 -9.46016e-16 0)
(3 -2.55413e-15 0)
(3 -2.7633e-15 0)
(3 -2.48574e-15 0)
(3 -1.99625e-15 0)
(3 -2.13803e-15 0)
(3 -3.08713e-15 0)
(3 -2.68595e-15 0)
(3 1.31679e-15 0)
(3 3.67802e-15 0)
(3 3.80665e-15 0)
(3 4.42442e-15 0)
(3 5.50951e-15 0)
(3 5.18357e-15 0)
(3 4.48853e-15 0)
(3 3.54161e-15 0)
(3 3.09637e-15 0)
(3 2.89421e-15 0)
(3 2.84768e-15 0)
(3 3.09009e-15 0)
(3 3.31271e-15 0)
(3 3.65994e-15 0)
(3 4.0383e-15 0)
(3 4.75135e-15 0)
(3 5.50122e-15 0)
(3 5.02911e-15 0)
(3 4.48902e-15 0)
(3 4.1473e-15 0)
(3 3.47896e-15 0)
(3 3.02799e-15 0)
(3 2.91619e-15 0)
(3 2.24145e-15 0)
(3 7.73696e-16 0)
(3 8.58509e-16 0)
(3 -8.99066e-16 0)
(3 -1.97042e-16 0)
(3 -1.04204e-16 0)
(3 -5.19762e-17 0)
(3 1.25376e-16 0)
(3 1.35012e-16 0)
(3 3.74689e-16 0)
(3 -2.31122e-16 0)
(3 -9.63516e-16 0)
(3 -1.65911e-15 0)
(3 -2.01937e-15 0)
(3 -1.50919e-15 0)
(3 -1.36082e-15 0)
(3 -1.66515e-15 0)
(3 -1.43104e-15 0)
(3 -6.24671e-17 0)
(3 -1.7906e-16 0)
(3 1.4694e-16 0)
(3 -4.71201e-16 0)
(3 -1.53394e-16 0)
(3 3.38291e-16 0)
(3 -7.0529e-17 0)
(3 -1.80527e-16 0)
(3 -2.55685e-16 0)
(3 -8.54695e-16 0)
(3 -1.68464e-15 0)
(3 -3.44326e-15 0)
(3 -3.38055e-15 0)
(3 -1.8765e-15 0)
(3 -1.21802e-15 0)
(3 -2.47581e-15 0)
(3 -4.39639e-15 0)
(3 -3.21406e-15 0)
(3 -2.05792e-15 0)
(3 -8.42311e-16 0)
(3 9.31754e-18 0)
(3 7.53838e-17 0)
(3 -6.8712e-16 0)
(3 -8.43055e-16 0)
(3 -5.166e-16 0)
(3 5.23266e-16 0)
(3 1.6333e-15 0)
(3 1.99251e-15 0)
(3 2.19259e-15 0)
(3 1.33147e-15 0)
(3 6.52961e-16 0)
(3 3.74348e-16 0)
(3 8.824e-16 0)
(3 1.53993e-15 0)
(3 3.07625e-15 0)
(3 3.71854e-15 0)
(3 2.95892e-15 0)
(3 2.2943e-15 0)
(3 9.64432e-16 0)
(3 -1.07518e-15 0)
(3 -2.82817e-15 0)
(3 -2.4036e-15 0)
(3 -1.89163e-15 0)
(3 -9.11102e-16 0)
(3 6.64083e-17 0)
(3 4.99921e-16 0)
(3 8.66806e-16 0)
(3 1.41252e-15 0)
(3 1.66973e-15 0)
(3 1.83168e-15 0)
(3 1.65109e-15 0)
(3 2.40209e-16 0)
(3 -1.27911e-15 0)
(3 -1.59524e-15 0)
(3 5.38402e-16 0)
(3 1.68981e-15 0)
(3 4.35751e-15 0)
(3 6.3449e-15 0)
(3 6.97094e-15 0)
(3 8.08756e-15 0)
(3 7.86638e-15 0)
(3 5.8477e-15 0)
(3 3.2429e-15 0)
(3 3.27635e-15 0)
(3 2.03972e-15 0)
(3 1.03178e-15 0)
(3 1.73315e-15 0)
(3 2.93401e-15 0)
(3 3.6822e-15 0)
(3 3.82445e-15 0)
(3 4.01385e-15 0)
(3 3.54429e-15 0)
(3 3.00048e-15 0)
(3 3.52664e-15 0)
(3 3.87586e-15 0)
(3 2.98397e-15 0)
(3 2.39271e-15 0)
(3 2.87007e-15 0)
(3 3.2479e-15 0)
(3 3.00181e-15 0)
(3 2.33476e-15 0)
(3 2.05383e-15 0)
(3 3.99375e-16 0)
(3 -4.87182e-16 0)
(3 -1.04932e-15 0)
(3 -1.16494e-15 0)
(3 -1.9826e-15 0)
(3 -2.06302e-15 0)
(3 -1.4852e-15 0)
(3 -1.69697e-15 0)
(3 -1.06079e-15 0)
(3 -7.21788e-16 0)
(3 -7.05809e-16 0)
(3 -1.11369e-15 0)
(3 -2.13861e-15 0)
(3 -1.95511e-15 0)
(3 -8.11094e-16 0)
(3 -6.20203e-17 0)
(3 -3.79726e-16 0)
(3 -9.70932e-16 0)
(3 -1.30498e-15 0)
(3 -1.10845e-15 0)
(3 -7.65501e-16 0)
(3 -4.65623e-16 0)
(3 -3.73328e-16 0)
(3 -3.73318e-16 0)
(3 -6.13174e-16 0)
(3 -8.99302e-16 0)
(3 -1.04696e-15 0)
(3 -1.03324e-15 0)
(3 -1.177e-15 0)
(3 -1.57952e-15 0)
(3 -1.71611e-15 0)
(3 -3.04374e-16 0)
(3 5.01385e-16 0)
(3 6.03037e-16 0)
(3 -6.05475e-17 0)
(3 6.32351e-17 0)
(3 3.07264e-16 0)
(3 2.33184e-16 0)
(3 3.10623e-16 0)
(3 3.8163e-16 0)
(3 8.71752e-16 0)
(3 2.19773e-15 0)
(3 3.78622e-15 0)
(3 3.62494e-15 0)
(3 2.76846e-15 0)
(3 1.56302e-15 0)
(3 1.58482e-15 0)
(3 1.37128e-15 0)
(3 1.01343e-15 0)
(3 9.84797e-16 0)
(3 9.40442e-16 0)
(3 4.43802e-16 0)
(3 1.32344e-16 0)
(3 1.47585e-16 0)
(3 1.84294e-16 0)
(3 6.99484e-17 0)
(3 3.82933e-16 0)
(3 7.97144e-16 0)
(3 7.42879e-16 0)
(3 1.47471e-15 0)
(3 2.71862e-15 0)
(3 2.62828e-15 0)
(3 2.77835e-15 0)
(3 2.59846e-15 0)
(3 1.87035e-15 0)
(3 3.01102e-16 0)
(3 1.66166e-16 0)
(3 8.85232e-16 0)
(3 2.23791e-15 0)
(3 3.57705e-15 0)
(3 4.78117e-15 0)
(3 5.66016e-15 0)
(3 5.17649e-15 0)
(3 4.76207e-15 0)
(3 4.83582e-15 0)
(3 4.30805e-15 0)
(3 3.90608e-15 0)
(3 2.68966e-15 0)
(3 4.96479e-16 0)
(3 -2.47575e-16 0)
(3 1.47875e-16 0)
(3 7.17101e-16 0)
(3 5.06245e-16 0)
(3 2.62787e-16 0)
(3 8.13825e-17 0)
(3 -3.27514e-16 0)
(3 -1.76218e-18 0)
(3 2.12733e-16 0)
(3 3.51542e-16 0)
(3 1.49393e-15 0)
(3 2.14158e-15 0)
(3 1.98279e-15 0)
(3 1.8826e-15 0)
(3 1.61891e-15 0)
(3 1.45455e-15 0)
(3 8.16047e-17 0)
(3 9.98417e-17 0)
(3 3.77436e-17 0)
(3 -5.62414e-16 0)
(3 -1.3436e-15 0)
(3 -1.19768e-15 0)
(3 -1.20663e-15 0)
(3 -8.97754e-16 0)
(3 -6.98788e-16 0)
(3 -5.25166e-16 0)
(3 -3.45137e-16 0)
(3 -1.17599e-15 0)
(3 -8.33113e-16 0)
(3 -3.62179e-16 0)
(3 2.22179e-16 0)
(3 2.29949e-16 0)
(3 -1.74195e-16 0)
(3 -1.99351e-15 0)
(3 -2.30819e-15 0)
(3 -2.97954e-15 0)
(3 -2.45155e-15 0)
(3 -2.28436e-15 0)
(3 -1.34988e-15 0)
(3 -8.57964e-16 0)
(3 -5.75247e-16 0)
(3 -4.31377e-17 0)
(3 6.72937e-16 0)
(3 8.58244e-16 0)
(3 4.49892e-16 0)
(3 4.87066e-16 0)
(3 9.37115e-16 0)
(3 8.17671e-16 0)
(3 1.24532e-15 0)
(3 1.94339e-15 0)
(3 2.39225e-15 0)
(3 1.47024e-15 0)
(3 8.56208e-16 0)
(3 9.9101e-16 0)
(3 1.39333e-15 0)
(3 1.77789e-15 0)
(3 1.36918e-15 0)
(3 1.51505e-15 0)
(3 1.90808e-15 0)
(3 2.14157e-15 0)
(3 3.0068e-15 0)
(3 2.87408e-15 0)
(3 2.13926e-15 0)
(3 2.81321e-17 0)
(3 -7.04737e-16 0)
(3 -1.43447e-15 0)
(3 -2.24049e-15 0)
(3 -1.40251e-15 0)
(3 -1.19173e-15 0)
(3 -6.68625e-16 0)
(3 -1.57313e-16 0)
(3 3.55142e-16 0)
(3 2.23293e-16 0)
(3 -1.72101e-16 0)
(3 2.13637e-17 0)
(3 6.17218e-16 0)
(3 1.48311e-15 0)
(3 1.96005e-15 0)
(3 2.7637e-15 0)
(3 3.17906e-15 0)
(3 2.50429e-15 0)
(3 1.0946e-15 0)
(3 1.20718e-15 0)
(3 1.36226e-15 0)
(3 2.5214e-15 0)
(3 2.68793e-15 0)
(3 3.05408e-15 0)
(3 3.57422e-15 0)
(3 3.14273e-15 0)
(3 3.49483e-15 0)
(3 3.91128e-15 0)
(3 3.99572e-15 0)
(3 3.68042e-15 0)
(3 3.3449e-15 0)
(3 3.45457e-15 0)
(3 2.61717e-16 0)
(3 -1.34617e-15 0)
(3 -1.99253e-15 0)
(3 -2.37321e-15 0)
(3 -2.41033e-15 0)
(3 -2.32949e-15 0)
(3 -2.27271e-15 0)
(3 -2.39443e-15 0)
(3 -2.35212e-15 0)
(3 -2.3986e-15 0)
(3 -2.28022e-15 0)
(3 -1.36282e-15 0)
(3 1.25318e-16 0)
(3 1.22457e-15 0)
(3 -8.08462e-16 0)
(3 -2.49743e-15 0)
(3 -2.84041e-15 0)
(3 -1.88291e-15 0)
(3 1.11516e-17 0)
(3 1.11283e-16 0)
(3 1.55693e-16 0)
(3 1.22462e-16 0)
(3 5.36639e-16 0)
(3 5.09129e-16 0)
(3 -1.1848e-16 0)
(3 1.79202e-16 0)
(3 1.60285e-16 0)
(3 -4.08471e-16 0)
(3 -4.23008e-16 0)
(3 -5.53495e-16 0)
(3 5.98125e-16 0)
(3 2.18077e-16 0)
(3 -3.76906e-16 0)
(3 -1.45085e-15 0)
(3 -1.86925e-15 0)
(3 -1.59619e-15 0)
(3 -9.97373e-16 0)
(3 -7.979e-16 0)
(3 -8.28989e-16 0)
(3 -1.33371e-15 0)
(3 -1.43896e-15 0)
(3 -1.55832e-15 0)
(3 -1.50817e-15 0)
(3 -8.10576e-16 0)
(3 -2.25216e-16 0)
(3 4.13564e-16 0)
(3 1.94834e-15 0)
(3 2.36418e-15 0)
(3 2.72993e-15 0)
(3 2.54012e-15 0)
(3 2.2814e-15 0)
(3 2.1124e-15 0)
(3 3.24608e-15 0)
(3 3.37866e-15 0)
(3 2.92775e-15 0)
(3 2.64491e-15 0)
(3 2.64495e-15 0)
(3 2.94724e-15 0)
(3 2.7557e-15 0)
(3 1.67782e-15 0)
(3 2.94239e-16 0)
(3 -1.08974e-16 0)
(3 -2.47069e-16 0)
(3 -9.03736e-17 0)
(3 -1.02838e-15 0)
(3 -2.67446e-15 0)
(3 -2.6348e-15 0)
(3 -2.51217e-15 0)
(3 -1.65491e-15 0)
(3 -1.56063e-16 0)
(3 3.3631e-16 0)
(3 6.71688e-16 0)
(3 6.79391e-16 0)
(3 2.84167e-16 0)
(3 -1.1114e-16 0)
(3 -4.87251e-16 0)
(3 -2.24829e-16 0)
(3 -2.21008e-16 0)
(3 1.84866e-15 0)
(3 2.52918e-15 0)
(3 2.94601e-15 0)
(3 3.08932e-15 0)
(3 2.85978e-15 0)
(3 3.0729e-15 0)
(3 3.49939e-15 0)
(3 2.64171e-15 0)
(3 1.99835e-15 0)
(3 2.20675e-15 0)
(3 1.55946e-15 0)
(3 1.26705e-15 0)
(3 2.34571e-15 0)
(3 3.10263e-15 0)
(3 3.76573e-15 0)
(3 3.56859e-15 0)
(3 4.07542e-15 0)
(3 4.01861e-15 0)
(3 2.34816e-15 0)
(3 7.35085e-16 0)
(3 -8.79125e-16 0)
(3 -2.04673e-15 0)
(3 -2.2363e-15 0)
(3 -2.66974e-15 0)
(3 -3.51314e-15 0)
(3 -3.45833e-15 0)
(3 -3.06123e-15 0)
(3 -2.87125e-15 0)
(3 -3.11872e-15 0)
(3 -4.0868e-15 0)
(3 -4.64652e-15 0)
(3 -4.29068e-15 0)
(3 -5.79305e-15 0)
(3 -5.90775e-15 0)
(3 -6.31132e-15 0)
(3 -5.20826e-15 0)
(3 -9.10516e-17 0)
(3 -1.60617e-16 0)
(3 3.95154e-16 0)
(3 8.13608e-16 0)
(3 9.41282e-16 0)
(3 6.87639e-16 0)
(3 8.97871e-16 0)
(3 6.82272e-16 0)
(3 6.3053e-16 0)
(3 3.52422e-16 0)
(3 -5.12696e-16 0)
(3 -1.26139e-15 0)
(3 -1.27183e-15 0)
(3 -1.40495e-15 0)
(3 -9.31796e-16 0)
(3 -2.45743e-16 0)
(3 1.11943e-16 0)
(3 1.14612e-15 0)
(3 1.77046e-15 0)
(3 1.75838e-15 0)
(3 1.15656e-15 0)
(3 1.13248e-16 0)
(3 -1.01656e-15 0)
(3 -1.28649e-15 0)
(3 -1.38981e-15 0)
(3 -1.51882e-15 0)
(3 -1.15528e-15 0)
(3 2.00702e-16 0)
(3 2.01337e-15 0)
(3 3.58209e-15 0)
(3 3.99837e-15 0)
(3 4.0105e-15 0)
(3 3.50562e-15 0)
(3 2.85657e-15 0)
(3 3.42927e-15 0)
(3 2.16281e-15 0)
(3 1.64566e-15 0)
(3 1.72561e-15 0)
(3 1.61218e-15 0)
(3 1.82922e-15 0)
(3 1.22956e-15 0)
(3 -3.21226e-16 0)
(3 -1.07953e-15 0)
(3 -1.35074e-15 0)
(3 -1.11411e-15 0)
(3 -4.85411e-16 0)
(3 -8.68521e-16 0)
(3 -2.14143e-15 0)
(3 -2.80193e-15 0)
(3 -2.37405e-15 0)
(3 -1.9088e-15 0)
(3 -1.01731e-15 0)
(3 -1.52139e-16 0)
(3 8.37434e-16 0)
(3 1.18328e-15 0)
(3 9.6291e-16 0)
(3 -3.86759e-16 0)
(3 -1.3328e-15 0)
(3 -1.89673e-15 0)
(3 -1.15934e-15 0)
(3 2.10102e-16 0)
(3 1.09654e-15 0)
(3 1.30901e-15 0)
(3 2.57503e-15 0)
(3 3.89772e-15 0)
(3 5.17511e-15 0)
(3 4.91476e-15 0)
(3 3.19232e-15 0)
(3 1.16214e-15 0)
(3 6.05769e-16 0)
(3 4.34166e-16 0)
(3 1.12546e-15 0)
(3 1.52573e-15 0)
(3 1.6217e-15 0)
(3 2.6743e-15 0)
(3 4.09742e-15 0)
(3 4.92169e-15 0)
(3 4.20564e-15 0)
(3 4.17182e-15 0)
(3 4.02865e-15 0)
(3 2.48658e-15 0)
(3 -7.94199e-17 0)
(3 -2.43291e-15 0)
(3 -3.56301e-15 0)
(3 -4.00628e-15 0)
(3 -3.43468e-15 0)
(3 -2.81957e-15 0)
(3 -2.72531e-15 0)
(3 -3.003e-15 0)
(3 -3.42889e-15 0)
(3 -4.91957e-15 0)
(3 -5.28511e-15 0)
(3 -7.10352e-15 0)
(3 -7.52334e-15 0)
(3 -7.6341e-15 0)
(3 -8.4926e-15 0)
(3 -2.2014e-16 0)
(3 -1.06815e-16 0)
(3 4.6575e-16 0)
(3 6.8012e-16 0)
(3 1.22127e-15 0)
(3 1.13782e-15 0)
(3 1.24446e-15 0)
(3 1.07691e-15 0)
(3 4.39943e-16 0)
(3 6.80529e-16 0)
(3 2.43053e-16 0)
(3 -2.22571e-16 0)
(3 -7.26232e-16 0)
(3 -5.95123e-16 0)
(3 -1.3363e-16 0)
(3 5.43339e-16 0)
(3 1.33491e-15 0)
(3 1.58333e-15 0)
(3 1.49028e-15 0)
(3 1.1962e-15 0)
(3 4.39652e-16 0)
(3 4.22921e-16 0)
(3 -5.99999e-16 0)
(3 -6.38116e-16 0)
(3 -8.437e-16 0)
(3 -1.16731e-15 0)
(3 -6.87956e-16 0)
(3 -1.9026e-17 0)
(3 1.02253e-15 0)
(3 2.48327e-15 0)
(3 3.07227e-15 0)
(3 3.24761e-15 0)
(3 2.50548e-15 0)
(3 1.84053e-15 0)
(3 1.22357e-15 0)
(3 5.76591e-16 0)
(3 4.50874e-16 0)
(3 6.02655e-16 0)
(3 9.43142e-16 0)
(3 5.78052e-16 0)
(3 4.71788e-16 0)
(3 2.10386e-16 0)
(3 -4.9305e-16 0)
(3 -1.05963e-15 0)
(3 -9.34901e-16 0)
(3 -1.19008e-15 0)
(3 -1.07983e-15 0)
(3 -1.02132e-15 0)
(3 -1.09093e-15 0)
(3 -8.67248e-16 0)
(3 -1.09204e-15 0)
(3 -1.77153e-15 0)
(3 -2.01847e-15 0)
(3 -1.62258e-15 0)
(3 -1.5711e-15 0)
(3 -1.8001e-15 0)
(3 -1.91992e-15 0)
(3 -1.45739e-15 0)
(3 -1.39022e-15 0)
(3 -1.79264e-15 0)
(3 -2.59323e-15 0)
(3 -6.48417e-16 0)
(3 -7.03767e-18 0)
(3 2.23104e-15 0)
(3 4.46609e-15 0)
(3 4.75188e-15 0)
(3 3.89879e-15 0)
(3 3.067e-15 0)
(3 2.51106e-15 0)
(3 1.22856e-15 0)
(3 1.25984e-15 0)
(3 2.40952e-15 0)
(3 2.76858e-15 0)
(3 3.71488e-15 0)
(3 3.30116e-15 0)
(3 3.93344e-15 0)
(3 4.25904e-15 0)
(3 3.31385e-15 0)
(3 2.89337e-15 0)
(3 2.65706e-15 0)
(3 2.31643e-15 0)
(3 4.66237e-16 0)
(3 -8.27199e-16 0)
(3 -1.08888e-15 0)
(3 -2.81041e-15 0)
(3 -3.78481e-15 0)
(3 -4.56495e-15 0)
(3 -5.04832e-15 0)
(3 -4.59542e-15 0)
(3 -3.93149e-15 0)
(3 -3.47235e-15 0)
(3 -2.83529e-15 0)
(3 -3.58547e-15 0)
(3 -5.21105e-15 0)
(3 -4.30683e-15 0)
(3 -5.01419e-15 0)
(3 2.12273e-16 0)
(3 2.65954e-16 0)
(3 5.47359e-16 0)
(3 3.34839e-16 0)
(3 9.84625e-17 0)
(3 3.61466e-16 0)
(3 4.84811e-16 0)
(3 4.00305e-16 0)
(3 7.59617e-17 0)
(3 2.38405e-16 0)
(3 5.76794e-16 0)
(3 3.32106e-16 0)
(3 1.39024e-16 0)
(3 1.45324e-16 0)
(3 -3.93323e-17 0)
(3 2.1922e-16 0)
(3 2.88304e-16 0)
(3 3.98092e-18 0)
(3 5.70562e-17 0)
(3 -1.16027e-16 0)
(3 -2.65285e-16 0)
(3 3.13987e-16 0)
(3 -5.74307e-17 0)
(3 -2.68516e-16 0)
(3 -5.87613e-16 0)
(3 -7.66332e-16 0)
(3 -7.0725e-16 0)
(3 -1.76506e-16 0)
(3 4.97678e-16 0)
(3 1.60586e-15 0)
(3 1.99557e-15 0)
(3 1.38328e-15 0)
(3 4.55489e-16 0)
(3 -4.14104e-16 0)
(3 -6.96517e-16 0)
(3 -3.27352e-16 0)
(3 -5.20227e-16 0)
(3 -1.32688e-15 0)
(3 -1.39328e-15 0)
(3 -1.48139e-15 0)
(3 -1.22188e-15 0)
(3 -9.85248e-16 0)
(3 -9.67545e-16 0)
(3 -3.3056e-16 0)
(3 -1.49613e-16 0)
(3 -4.20225e-16 0)
(3 6.82884e-17 0)
(3 1.57575e-15 0)
(3 1.66112e-15 0)
(3 1.22175e-15 0)
(3 7.31198e-16 0)
(3 -3.20541e-16 0)
(3 -5.96007e-16 0)
(3 -6.84321e-16 0)
(3 -1.11422e-15 0)
(3 -3.96466e-16 0)
(3 -2.07069e-16 0)
(3 -4.20807e-16 0)
(3 -3.7067e-16 0)
(3 -1.07623e-15 0)
(3 -2.59429e-15 0)
(3 -2.72881e-15 0)
(3 -1.04363e-15 0)
(3 7.47257e-17 0)
(3 9.50808e-16 0)
(3 2.5793e-15 0)
(3 2.65007e-15 0)
(3 4.25955e-15 0)
(3 4.91435e-15 0)
(3 4.4772e-15 0)
(3 4.45629e-15 0)
(3 3.87051e-15 0)
(3 3.52559e-15 0)
(3 2.82717e-15 0)
(3 1.82513e-15 0)
(3 1.52326e-15 0)
(3 1.58697e-15 0)
(3 1.78367e-15 0)
(3 2.29435e-15 0)
(3 2.40895e-15 0)
(3 3.00945e-15 0)
(3 3.28436e-15 0)
(3 2.82044e-15 0)
(3 1.18988e-15 0)
(3 -8.00969e-16 0)
(3 -4.33844e-15 0)
(3 -6.00457e-15 0)
(3 -5.74216e-15 0)
(3 -5.67093e-15 0)
(3 -4.08588e-15 0)
(3 -3.2114e-15 0)
(3 -2.26805e-15 0)
(3 -1.82611e-15 0)
(3 -2.22758e-15 0)
(3 -2.12696e-15 0)
(3 -1.38837e-15 0)
(3 1.58656e-16 0)
(3 1.4266e-16 0)
(3 2.23602e-17 0)
(3 -2.28277e-16 0)
(3 -6.01326e-16 0)
(3 -8.39994e-16 0)
(3 -6.75444e-16 0)
(3 -3.92657e-16 0)
(3 3.59414e-16 0)
(3 6.0182e-16 0)
(3 8.05e-16 0)
(3 9.79301e-16 0)
(3 1.05528e-15 0)
(3 7.35115e-16 0)
(3 6.37142e-16 0)
(3 3.7462e-16 0)
(3 1.13354e-16 0)
(3 -2.63779e-16 0)
(3 2.84245e-16 0)
(3 8.92728e-16 0)
(3 1.26309e-15 0)
(3 9.11225e-16 0)
(3 1.03956e-15 0)
(3 9.86847e-16 0)
(3 9.77985e-16 0)
(3 1.44915e-15 0)
(3 1.55021e-15 0)
(3 1.03339e-15 0)
(3 8.04917e-16 0)
(3 1.50613e-15 0)
(3 9.60267e-16 0)
(3 -1.57148e-16 0)
(3 -9.65486e-16 0)
(3 -2.17595e-15 0)
(3 -2.40481e-15 0)
(3 -2.22118e-15 0)
(3 -1.71768e-15 0)
(3 -2.1353e-15 0)
(3 -2.76466e-15 0)
(3 -2.51183e-15 0)
(3 -2.96294e-15 0)
(3 -1.84485e-15 0)
(3 -1.68195e-15 0)
(3 -3.57082e-16 0)
(3 8.35965e-16 0)
(3 1.92861e-15 0)
(3 2.27835e-15 0)
(3 3.19279e-15 0)
(3 3.1612e-15 0)
(3 2.69113e-15 0)
(3 1.71992e-15 0)
(3 1.74302e-15 0)
(3 1.07742e-15 0)
(3 6.25462e-16 0)
(3 3.94875e-16 0)
(3 8.74588e-16 0)
(3 1.02832e-15 0)
(3 -3.30445e-17 0)
(3 -1.41816e-15 0)
(3 -1.67487e-15 0)
(3 -1.91397e-15 0)
(3 -3.21762e-15 0)
(3 -3.48782e-15 0)
(3 -3.5272e-15 0)
(3 -2.04681e-15 0)
(3 9.38598e-16 0)
(3 4.83634e-15 0)
(3 6.19901e-15 0)
(3 6.76049e-15 0)
(3 6.20376e-15 0)
(3 5.94376e-15 0)
(3 5.30198e-15 0)
(3 3.84509e-15 0)
(3 2.91767e-15 0)
(3 3.19401e-15 0)
(3 2.97271e-15 0)
(3 2.72527e-15 0)
(3 2.93413e-15 0)
(3 3.90047e-15 0)
(3 3.66781e-15 0)
(3 2.54896e-15 0)
(3 2.48984e-15 0)
(3 2.65361e-15 0)
(3 1.76347e-15 0)
(3 9.16027e-16 0)
(3 -5.47859e-16 0)
(3 -1.53346e-15 0)
(3 -2.06352e-15 0)
(3 -1.79847e-15 0)
(3 -2.12797e-15 0)
(3 -2.62422e-15 0)
(3 -2.60993e-15 0)
(3 -2.21675e-15 0)
(3 -1.02096e-15 0)
(3 -7.169e-16 0)
(3 -6.75696e-16 0)
(3 -1.07423e-16 0)
(3 -2.83454e-16 0)
(3 -6.89871e-16 0)
(3 -9.01365e-16 0)
(3 -1.21011e-15 0)
(3 -1.0664e-15 0)
(3 -8.38826e-16 0)
(3 -8.18843e-16 0)
(3 3.32298e-16 0)
(3 1.17302e-15 0)
(3 1.35145e-15 0)
(3 7.54805e-16 0)
(3 8.3515e-16 0)
(3 3.33121e-16 0)
(3 1.14438e-16 0)
(3 -1.37059e-16 0)
(3 4.42906e-16 0)
(3 5.47691e-16 0)
(3 1.05783e-15 0)
(3 1.38219e-15 0)
(3 1.48513e-15 0)
(3 6.58692e-16 0)
(3 1.26729e-15 0)
(3 2.21768e-15 0)
(3 2.67206e-15 0)
(3 3.13055e-15 0)
(3 3.48878e-15 0)
(3 1.89229e-15 0)
(3 4.01546e-16 0)
(3 -3.79994e-16 0)
(3 -6.07888e-16 0)
(3 -8.93646e-16 0)
(3 -1.14467e-15 0)
(3 -2.478e-15 0)
(3 -3.52823e-15 0)
(3 -3.58721e-15 0)
(3 -3.27372e-15 0)
(3 -2.90698e-15 0)
(3 -3.14218e-15 0)
(3 -3.10947e-15 0)
(3 -2.9192e-15 0)
(3 -1.44991e-15 0)
(3 8.46855e-16 0)
(3 2.20407e-15 0)
(3 2.75603e-15 0)
(3 2.80642e-15 0)
(3 3.0642e-15 0)
(3 2.95452e-15 0)
(3 2.92018e-15 0)
(3 3.00992e-15 0)
(3 2.94543e-15 0)
(3 2.27992e-15 0)
(3 1.65553e-15 0)
(3 1.36346e-15 0)
(3 1.09428e-15 0)
(3 3.4592e-16 0)
(3 -3.7223e-16 0)
(3 -4.32381e-16 0)
(3 -1.66566e-16 0)
(3 -6.73097e-16 0)
(3 -1.17455e-15 0)
(3 -1.8558e-15 0)
(3 -2.22198e-15 0)
(3 -1.55197e-15 0)
(3 -9.52427e-16 0)
(3 6.17068e-16 0)
(3 2.42168e-15 0)
(3 3.16731e-15 0)
(3 3.88265e-15 0)
(3 4.10248e-15 0)
(3 3.57374e-15 0)
(3 3.33329e-15 0)
(3 2.90284e-15 0)
(3 3.18712e-15 0)
(3 3.73645e-15 0)
(3 3.58911e-15 0)
(3 3.49704e-15 0)
(3 3.29558e-15 0)
(3 3.39344e-15 0)
(3 3.52516e-15 0)
(3 3.70901e-15 0)
(3 3.6619e-15 0)
(3 2.93548e-15 0)
(3 2.22126e-15 0)
(3 1.67721e-15 0)
(3 1.86564e-15 0)
(3 1.95413e-15 0)
(3 1.48273e-15 0)
(3 1.43577e-15 0)
(3 8.56541e-16 0)
(3 3.78136e-16 0)
(3 -2.48378e-16 0)
(3 -3.37131e-16 0)
(3 -8.03702e-17 0)
(3 4.15796e-17 0)
(3 -6.54621e-17 0)
(3 4.04286e-19 0)
(3 -4.04315e-17 0)
(3 3.40291e-17 0)
(3 1.45463e-16 0)
(3 2.32754e-16 0)
(3 5.20843e-16 0)
(3 7.63573e-16 0)
(3 1.7255e-16 0)
(3 8.01747e-17 0)
(3 1.789e-16 0)
(3 9.1259e-16 0)
(3 8.40692e-16 0)
(3 -4.21279e-17 0)
(3 -3.98803e-17 0)
(3 -2.68596e-16 0)
(3 -3.97103e-16 0)
(3 2.21745e-16 0)
(3 4.10311e-16 0)
(3 6.52851e-16 0)
(3 5.00074e-16 0)
(3 4.90496e-16 0)
(3 9.85457e-16 0)
(3 1.46514e-15 0)
(3 1.40966e-15 0)
(3 1.07846e-15 0)
(3 1.26696e-15 0)
(3 1.25964e-15 0)
(3 7.05912e-16 0)
(3 -4.93815e-16 0)
(3 -1.7526e-15 0)
(3 -1.48861e-15 0)
(3 -1.32892e-15 0)
(3 -6.8675e-16 0)
(3 -6.84194e-16 0)
(3 -1.58151e-15 0)
(3 -2.66559e-15 0)
(3 -3.07146e-15 0)
(3 -2.98511e-15 0)
(3 -3.10605e-15 0)
(3 -2.83565e-15 0)
(3 -1.55463e-15 0)
(3 -2.82056e-16 0)
(3 5.38524e-16 0)
(3 3.1498e-15 0)
(3 3.87449e-15 0)
(3 2.95159e-15 0)
(3 2.49204e-15 0)
(3 2.35462e-15 0)
(3 2.66446e-15 0)
(3 2.60967e-15 0)
(3 2.53999e-15 0)
(3 1.8504e-15 0)
(3 5.53828e-16 0)
(3 -5.43743e-16 0)
(3 -6.41211e-16 0)
(3 -1.4967e-15 0)
(3 -2.01991e-15 0)
(3 -2.32219e-15 0)
(3 -9.1986e-16 0)
(3 -1.41366e-15 0)
(3 -1.76488e-15 0)
(3 -1.26434e-15 0)
(3 -1.09466e-15 0)
(3 -8.83525e-16 0)
(3 -4.54817e-16 0)
(3 -3.39108e-16 0)
(3 -7.63953e-17 0)
(3 3.89534e-16 0)
(3 1.14174e-15 0)
(3 9.90888e-16 0)
(3 5.10652e-16 0)
(3 3.61886e-16 0)
(3 1.46514e-16 0)
(3 1.67401e-16 0)
(3 8.31152e-16 0)
(3 2.24875e-15 0)
(3 2.55873e-15 0)
(3 3.89648e-15 0)
(3 4.33292e-15 0)
(3 3.07199e-15 0)
(3 3.10037e-15 0)
(3 3.18452e-15 0)
(3 2.63516e-15 0)
(3 1.67522e-15 0)
(3 9.04478e-16 0)
(3 1.06208e-15 0)
(3 2.18961e-15 0)
(3 3.79594e-15 0)
(3 3.99627e-15 0)
(3 4.14712e-15 0)
(3 4.76514e-15 0)
(3 4.21224e-15 0)
(3 3.7642e-15 0)
(3 2.90772e-15 0)
(3 9.75945e-16 0)
(3 4.51006e-16 0)
(3 1.17197e-16 0)
(3 2.77402e-16 0)
(3 3.52942e-16 0)
(3 6.1791e-16 0)
(3 1.05501e-15 0)
(3 1.33114e-15 0)
(3 1.34486e-15 0)
(3 1.98867e-15 0)
(3 1.42679e-15 0)
(3 1.10684e-15 0)
(3 1.02559e-15 0)
(3 1.90722e-15 0)
(3 2.48261e-15 0)
(3 2.72636e-15 0)
(3 2.81633e-15 0)
(3 2.45029e-15 0)
(3 2.1699e-15 0)
(3 1.431e-15 0)
(3 5.47357e-16 0)
(3 4.48724e-16 0)
(3 1.34656e-15 0)
(3 1.92918e-15 0)
(3 1.93441e-15 0)
(3 1.8771e-15 0)
(3 2.37601e-15 0)
(3 1.90282e-15 0)
(3 1.29279e-15 0)
(3 8.24357e-16 0)
(3 3.81956e-16 0)
(3 -3.03581e-16 0)
(3 -8.20951e-16 0)
(3 -1.05689e-15 0)
(3 -1.0111e-15 0)
(3 -9.85983e-16 0)
(3 -1.35269e-15 0)
(3 -2.13452e-15 0)
(3 -1.5946e-15 0)
(3 -5.82606e-16 0)
(3 -2.13838e-16 0)
(3 -4.56958e-17 0)
(3 1.90193e-15 0)
(3 2.44552e-15 0)
(3 1.89394e-15 0)
(3 1.64522e-15 0)
(3 1.50209e-15 0)
(3 1.8195e-15 0)
(3 1.85556e-15 0)
(3 1.97961e-15 0)
(3 2.40754e-15 0)
(3 3.15285e-15 0)
(3 2.93777e-15 0)
(3 1.92375e-15 0)
(3 6.45717e-17 0)
(3 -1.36037e-15 0)
(3 -1.92081e-15 0)
(3 -2.73663e-15 0)
(3 -3.16445e-15 0)
(3 -3.63897e-15 0)
(3 -3.74302e-15 0)
(3 -3.66979e-15 0)
(3 -3.01274e-15 0)
(3 -1.32113e-15 0)
(3 -2.7963e-16 0)
(3 -8.64918e-18 0)
(3 -3.75148e-16 0)
(3 -1.11278e-15 0)
(3 -1.56964e-15 0)
(3 -2.18397e-15 0)
(3 -2.72855e-15 0)
(3 -3.1621e-15 0)
(3 -3.62237e-15 0)
(3 -3.66792e-15 0)
(3 -3.93625e-15 0)
(3 -3.89292e-15 0)
(3 -2.50386e-15 0)
(3 -6.16756e-16 0)
(3 5.15518e-16 0)
(3 1.02647e-15 0)
(3 1.62781e-15 0)
(3 2.57707e-15 0)
(3 2.58242e-15 0)
(3 1.68018e-15 0)
(3 1.13492e-15 0)
(3 1.1326e-15 0)
(3 9.38033e-16 0)
(3 7.89314e-16 0)
(3 2.07874e-15 0)
(3 3.33776e-15 0)
(3 3.4677e-15 0)
(3 3.85403e-15 0)
(3 4.10361e-15 0)
(3 4.89419e-15 0)
(3 5.57307e-15 0)
(3 6.35581e-15 0)
(3 4.26999e-15 0)
(3 2.06463e-15 0)
(3 3.27411e-18 0)
(3 -2.69777e-17 0)
(3 -4.33705e-16 0)
(3 -3.57282e-16 0)
(3 -3.98153e-16 0)
(3 -3.90894e-16 0)
(3 -5.9612e-16 0)
(3 5.08794e-16 0)
(3 5.63263e-16 0)
(3 8.7089e-16 0)
(3 9.6512e-16 0)
(3 1.63876e-15 0)
(3 2.06016e-15 0)
(3 2.46406e-15 0)
(3 2.84053e-15 0)
(3 3.36941e-15 0)
(3 2.43186e-15 0)
(3 1.20118e-15 0)
(3 1.85273e-16 0)
(3 -2.53192e-16 0)
(3 2.70222e-16 0)
(3 7.61888e-16 0)
(3 5.89105e-16 0)
(3 7.47307e-16 0)
(3 1.93168e-15 0)
(3 3.15555e-15 0)
(3 3.64783e-15 0)
(3 2.63412e-15 0)
(3 2.54335e-15 0)
(3 1.62053e-15 0)
(3 4.14411e-16 0)
(3 -1.26219e-15 0)
(3 -1.84939e-15 0)
(3 -1.59591e-15 0)
(3 -1.04177e-15 0)
(3 -8.37311e-16 0)
(3 -3.0588e-17 0)
(3 5.97919e-16 0)
(3 1.77152e-15 0)
(3 1.92863e-15 0)
(3 1.52455e-15 0)
(3 1.70291e-15 0)
(3 1.46188e-15 0)
(3 -6.502e-16 0)
(3 -1.7504e-15 0)
(3 -8.8739e-16 0)
(3 4.99285e-16 0)
(3 8.63525e-16 0)
(3 1.30585e-15 0)
(3 9.83518e-16 0)
(3 9.49895e-17 0)
(3 -6.59235e-16 0)
(3 -3.77977e-16 0)
(3 4.71955e-16 0)
(3 -7.443e-16 0)
(3 -1.20677e-15 0)
(3 -1.05174e-15 0)
(3 -1.15115e-15 0)
(3 -2.01127e-15 0)
(3 -1.56434e-15 0)
(3 -9.64101e-16 0)
(3 -1.87761e-16 0)
(3 -2.39747e-16 0)
(3 -8.56671e-16 0)
(3 -2.06588e-15 0)