/*--------------------------------*- C++ -*----------------------------------*\
  =========                 |
  \\      /  F ield         | OpenFOAM: The Open Source CFD Toolbox
   \\    /   O peration     | Website:  https://openfoam.org
    \\  /    A nd           | Version:  7
     \\/     M anipulation  |
\*---------------------------------------------------------------------------*/
FoamFile
{
    version     2.0;
    format      ascii;
    class       volScalarField;
    location    "3.2";
    object      p;
}
// * * * * * * * * * * * * * * * * * * * * * * * * * * * * * * * * * * * * * //

dimensions      [1 -1 -2 0 0 0 0];

internalField   nonuniform List<scalar> 
4608
(
1
1
1
1
1
1
1
1
1
1
1
1
1
1
1
1
1
1
1
1
1
1
1
1
1
1
1
1
1
1
1
1
1
1
1
1
1
1
1
1
1
1
1
1
1
1
1
1
1
1
1
1
1
1
1
1
1
1
1
1
1
1
1
1
1
1
1
1
1
1
1
1
1
1
1
1
1
1
1
1
1
1
1
1
1
1
1
1
1
1
1
1
1
1
1
1
1
1
1
1
1
1
1
1
1
1
1
1
1
1
1
1
1
1
1
1
1
1
1
1
1
1
1
1
1
1
1
1
1
1
1
1
1
1
1
1
1
1
1
1
1
1
1
1
1
1
1
1
1
1
1
1
1
1
1
1
1
1
1
1
1
1
1
1
1
1
1
1
1
1
1
1
1
1
1
1
1
1
1
1
1
1
1
1
1
1
1
1
1
1
1
1
1
1
1
1
1
1
1
1
1
1
1
1
1
1
1
1
1
1
1
1
1
1
1
1
1
1
1
1
1
1
1
1
1
1
1
1
1
1
1
1
1
1
1
1
1
1
1
1
1
1
1
1
1
1
1
1
1
1
1
1
1
1
1
1
1
1
1
1
1
1
1
1
1
1
1
1
1
1
1
1
1
1
1
1
1
1
1
1
1
1
1
1
1
1
1
1
1
1
1
1
1
1
1
1
1
1
1
1
1
1
1
1
1
1
1
1
1
1
1
1
1
1
1
1
1
1
1
1
1
1
1
1
1
1
1
1
1
1
1
1
1
1
1
1
1
1
1
1
1
1
1
1
1
1
1
1
1
1
1
1
1
1
1
1
1
1
1
1
1
1
1
1
1
1
1
1
1
1
1
1
1
1
1
1
1
1
1
1
1
1
1
1
1
1
1
1
1
1
1
1
1
1
1
1
1
1
1
1
1
1
1
1
1
1
1
1
1
1
1
1
1
1
1
1
1
1
1
1
1
1
1
1
1
1
1
1
1
1
1
1
1
1
1
1
1
1
1
1
1
1
1
1
1
1
1
1
1
1
1
1
1
1
1
1
1
1
1
1
1
1
1
1
1
1
1
1
1
1
1
1
1
1
1
1
1
1
1
1
1
1
1
1
1
1
1
1
1
1
1
1
1
1
1
1
1
1
1
1
1
1
1
1
1
1
1
1
1
1
1
1
1
1
1
1
1
1
1
1
1
1
1
1
1
1
1
1
1
1
1
1
1
1
1
1
1
1
1
1
1
1
1
1
1
1
1
1
1
1
1
1
1
1
1
1
1
1
1
1
1
1
1
1
1
1
1
1
1
1
1
1
1
1
1
1
1
1
1
1
1
1
1
1
1
1
1
1
1
1
1
1
1
1
1
1
1
1
1
1
1
1
1
1
1
1
1
1
1
1
1
1
1
1
1
1
1
1
1
1
1
1
1
1
1
1
1
1
1
1
1
1
1
1
1
1
1
1
1
1
1
1
1
1
1
1
1
1
1
1
1
1
1
1
1
1
1
1
1
1
1
1
1
1
1
1
1
1
1
1
1
1
1
1
1
1
1
1
1
1
1
1
1
1
1
1
1
1
1
1
1
1
1
1
1
1
1
1
1
1
1
1
1
1
1
1
1
1
1
1
1
1
1
1
1
1
1
1
1
1
1
1
1
1
1
1
1
1
1
1
1
1
1
1
1
1
1
1
1
1
1
1
1
1
1
1
1
1
1
1
1
1
1
1
1
1
1
1
1
1
1
1
1
1
1
1
1
1
1.29153
1.76957
2.32079
2.97351
3.64838
4.27707
4.84704
5.30385
5.36887
5.17024
4.72618
4.21084
3.82844
3.66918
3.567
3.5764
3.61897
3.66595
3.70922
3.72667
3.73447
3.74273
3.76326
3.78471
1.00234
1.01792
1.08921
1.21441
1.47615
1.85322
2.38269
2.97118
3.57934
3.84937
4.03629
4.02342
3.96917
3.87988
3.75364
3.72311
3.6976
3.68207
3.69773
3.71576
3.72634
3.73894
3.75516
3.77464
1
0.999944
1.00024
1.00022
1.00362
1.02377
1.10826
1.36503
1.97444
3.00889
3.831
4.3047
4.35808
4.28535
4.10903
3.85896
3.67327
3.65841
3.68366
3.7065
3.71574
3.72441
3.73285
3.74758
1
0.999998
0.999998
0.999999
0.999987
1.00004
0.999906
1.00197
1.03105
1.30961
2.0199
3.20541
3.87882
4.11009
4.07579
3.99331
3.81662
3.73398
3.73688
3.71264
3.70233
3.70911
3.72096
3.73553
1
1
1
1
0.999999
0.999999
0.999987
0.999991
0.999898
1.00167
1.0408
1.35497
2.22616
3.261
4.04189
4.11012
4.0273
3.93817
3.83428
3.74356
3.70671
3.71216
3.72736
3.74533
1
1
1
1
1
1
1
0.999999
0.99999
0.99999
0.999912
1.0027
1.08493
1.48237
2.51724
3.47786
3.99968
3.99494
3.94018
3.85155
3.76422
3.7442
3.73292
3.73625
1
1
1
1
1
1
1
1
1
0.999999
0.999992
0.99998
1.00006
1.00813
1.17247
1.79578
2.96283
3.56306
3.86622
3.89676
3.85447
3.7477
3.71989
3.70932
1
1
1
1
1
1
1
1
1
1
1
0.999998
0.999998
0.999971
1.00144
1.03292
1.36907
2.22112
3.36732
3.77085
3.78973
3.76018
3.73672
3.72349
1
1
1
1
1
1
1
1
1
1
1
1
1
0.999994
0.999996
0.999983
1.00863
1.1267
1.73291
2.78692
3.58974
3.8144
3.81052
3.79366
1
1
1
1
1
1
1
1
1
1
1
1
1
1
0.999999
0.999996
0.999977
1.00105
1.04279
1.40835
2.41082
3.22709
3.61069
3.78077
1
1
1
1
1
1
1
1
1
1
1
1
1
1
1
1
0.999996
0.999992
1.0002
1.01527
1.20756
1.99598
3.06023
3.70124
1
1
1
1
1
1
1
1
1
1
1
1
1
1
1
1
1
0.999999
0.999997
1.00002
1.005
1.12595
1.70263
2.86087
1
1
1
1
1
1
1
1
1
1
1
1
1
1
1
1
1
1
0.999999
0.999999
1
1.00245
1.06548
1.48698
1
1
1
1
1
1
1
1
1
1
1
1
1
1
1
1
1
1
1
1
1
0.999997
1.00114
1.02557
1
1
1
1
1
1
1
1
1
1
1
1
1
1
1
1
1
1
1
1
1
0.999999
1
1.00006
1
1
1
1
1
1
1
1
1
1
1
1
1
1
1
1
1
1
1
1
1
1
1
0.999997
1
1
1
1
1
1
1
1
1
1
1
1
1
1
1
1
1
1
1
1
1
1
1
0.999997
1
1
1
1
1
1
1
1
1
1
1
1
1
1
1
1
1
1
1
1
1
0.999999
0.999998
1.00003
1
1
1
1
1
1
1
1
1
1
1
1
1
1
1
1
1
1
1
1
0.999999
0.999997
1.00091
1.03133
1
1
1
1
1
1
1
1
1
1
1
1
1
1
1
1
1
1
0.999999
0.999999
0.999999
1.00287
1.06348
1.52969
1
1
1
1
1
1
1
1
1
1
1
1
1
1
1
1
1
0.999999
0.999997
1.00002
1.00482
1.12872
1.74638
2.80981
1
1
1
1
1
1
1
1
1
1
1
1
1
1
1
1
0.999996
0.999992
1.00018
1.01583
1.20458
1.99734
3.11357
3.67103
1
1
1
1
1
1
1
1
1
1
1
1
1
1
0.999999
0.999996
0.999977
1.00106
1.04257
1.4102
2.40954
3.24573
3.59689
3.76639
1
1
1
1
1
1
1
1
1
1
1
1
1
0.999994
0.999996
0.999983
1.00862
1.12664
1.73773
2.77577
3.59818
3.82008
3.80975
3.79008
1
1
1
1
1
1
1
1
1
1
1
0.999997
0.999998
0.999971
1.00143
1.03296
1.36835
2.22178
3.373
3.76302
3.79101
3.76229
3.73823
3.72235
1
1
1
1
1
1
1
1
1
0.999999
0.999992
0.99998
1.00006
1.00813
1.17255
1.79558
2.96244
3.56524
3.86529
3.89483
3.85284
3.7493
3.72084
3.7081
1
1
1
1
1
1
1
0.999999
0.99999
0.99999
0.999912
1.0027
1.08492
1.48235
2.51784
3.47673
4.00005
3.99546
3.94073
3.85051
3.76388
3.74564
3.73255
3.73614
1
1
1
1
0.999999
0.999999
0.999987
0.999991
0.999898
1.00167
1.04081
1.35496
2.22603
3.26129
4.04189
4.10993
4.0271
3.93849
3.83469
3.74253
3.70701
3.71278
3.72711
3.74517
1
0.999998
0.999998
0.999999
0.999987
1.00004
0.999906
1.00197
1.03105
1.30957
2.02
3.20515
3.87907
4.11025
4.07577
3.99337
3.81587
3.73449
3.73697
3.71193
3.70228
3.70923
3.72093
3.73554
1
0.999944
1.00024
1.00022
1.00362
1.02377
1.10825
1.36505
1.9744
3.00887
3.83112
4.30469
4.35809
4.28535
4.10911
3.8588
3.67297
3.65884
3.6837
3.70616
3.71586
3.72465
3.73279
3.7475
1.00234
1.01792
1.0892
1.21441
1.47617
1.85321
2.38268
2.97123
3.57922
3.84942
4.03632
4.02345
3.96907
3.87989
3.75375
3.72305
3.69767
3.68204
3.69764
3.71579
3.7264
3.73893
3.75495
3.77459
1.29153
1.76956
2.32081
2.97354
3.64837
4.27694
4.84715
5.3039
5.36884
5.17021
4.72618
4.21084
3.82831
3.66921
3.56708
3.57642
3.619
3.66595
3.70932
3.7268
3.73459
3.74272
3.7629
3.78464
2.66685
1.72509
1.16255
0.783613
0.648851
0.672594
0.739167
0.742815
0.757961
0.819864
0.873885
0.916421
0.969336
1.03746
1.05339
1.04993
1.03804
1.03902
1.05187
1.07306
1.07739
1.07267
1.06416
1.1318
1.56078
2.73955
4.54432
6.76256
8.87626
9.38439
8.73578
7.6544
6.89081
6.49993
6.26612
6.02389
5.80464
5.63823
5.48909
5.33399
5.15057
4.93469
4.69663
4.44855
4.22629
4.06037
3.93266
3.83256
3.75478
3.68182
3.59913
3.49986
3.38233
3.24804
3.10488
2.96728
2.8533
2.7684
2.70446
2.6534
2.61071
2.56343
2.51336
2.45533
2.38698
2.30007
2.19637
2.10192
2.0235
1.99176
1.99195
2.03297
2.23078
2.72857
3.46743
4.18628
4.71361
5.1058
5.27707
5.219
5.09359
4.91151
4.77408
4.67828
4.57811
4.47659
4.3893
4.30668
4.21133
4.08121
3.95048
3.89117
3.85575
3.82338
3.80555
3.73878
3.38138
2.74791
2.23261
1.8024
1.38001
1.23193
1.1732
1.06247
0.979124
0.951721
0.92128
0.906823
0.913368
0.937096
0.97027
0.986773
0.989249
0.993781
1.00996
1.03297
1.03888
1.04278
1.1166
1.65433
2.62243
3.05554
3.5842
4.29902
5.56075
6.75408
7.57718
7.47197
7.10287
6.70478
6.34114
6.03774
5.85475
5.70191
5.54656
5.38233
5.19139
4.97176
4.73932
4.49797
4.28173
4.12863
4.01659
3.91048
3.81915
3.73768
3.65078
3.55348
3.43856
3.29755
3.14408
3.00424
2.90888
2.84272
2.77831
2.71577
2.66074
2.60668
2.54983
2.48796
2.42022
2.33463
2.2333
2.14464
2.07566
2.07774
2.13414
2.35277
2.73401
3.12012
3.3584
3.66873
4.1044
4.37685
4.55997
4.75137
4.90315
4.90838
4.84541
4.73587
4.61501
4.49858
4.40317
4.33196
4.24671
4.10973
3.96802
3.91008
3.88278
3.86081
3.83594
3.76392
3.64911
3.33187
2.84432
2.42352
1.99885
1.58895
1.41076
1.2825
1.09918
0.993322
0.980481
0.943279
0.918705
0.924111
0.946034
0.959134
0.95616
0.960371
0.978562
0.998205
1.01772
1.13346
1.73054
2.73547
3.28449
3.29673
3.28278
3.30836
3.54469
4.54759
6.16898
7.20019
7.25842
6.99398
6.42806
6.02355
5.76841
5.5706
5.36577
5.17743
5.0177
4.84579
4.66392
4.49181
4.32946
4.16292
3.99204
3.83769
3.714
3.62339
3.53836
3.44719
3.34652
3.22636
3.09497
2.99011
2.91316
2.83141
2.74559
2.666
2.59155
2.52292
2.4572
2.39217
2.33133
2.26299
2.20857
2.16398
2.16986
2.27086
2.56378
2.98643
3.25702
3.31066
3.33921
3.36972
3.46585
3.6703
3.99081
4.38974
4.69729
4.8244
4.83558
4.79183
4.68638
4.54736
4.42962
4.32985
4.223
4.08963
3.98604
3.92722
3.87885
3.83117
3.79063
3.70927
3.71266
3.59953
3.29217
2.9061
2.55675
2.08884
1.75168
1.63237
1.4643
1.23417
1.17768
1.13751
1.02691
0.97577
0.985251
0.982242
0.961293
0.943955
0.941671
0.953844
1.11331
1.72934
2.85809
3.25652
3.25823
3.22319
3.16196
3.07363
2.98514
3.08273
3.70637
5.22377
6.51207
6.57328
6.46135
6.14487
5.82416
5.55004
5.28912
5.07728
4.94819
4.82736
4.69696
4.561
4.40141
4.19955
4.01648
3.8507
3.70288
3.59381
3.5019
3.40247
3.29905
3.20825
3.12585
3.04476
2.9603
2.85849
2.75899
2.66876
2.5798
2.49624
2.42224
2.35587
2.29678
2.24206
2.2337
2.30023
2.52687
2.92372
3.33125
3.48943
3.48911
3.45098
3.38561
3.32335
3.28796
3.3097
3.43017
3.70702
4.06858
4.39154
4.58871
4.63203
4.62477
4.58208
4.48084
4.34183
4.20515
4.0895
4.02321
3.96911
3.90782
3.84064
3.78561
3.6921
3.73829
3.70684
3.57464
3.28354
2.96555
2.61852
2.15983
1.90747
1.77904
1.58317
1.38147
1.28272
1.16753
1.0447
1.02699
1.01291
0.978892
0.951156
0.970955
1.18336
1.8839
2.85767
3.32316
3.27624
3.16387
3.03567
2.9723
2.89781
2.84488
2.76898
2.78757
3.10191
4.16271
5.4714
6.15796
6.09487
5.93461
5.59931
5.32368
5.09309
4.89407
4.70715
4.5362
4.39905
4.30072
4.21494
4.09339
3.9296
3.74529
3.59329
3.46972
3.35788
3.24915
3.14788
3.06216
2.98594
2.90782
2.85206
2.79455
2.71497
2.61889
2.51188
2.39647
2.3228
2.28508
2.28938
2.43915
2.80217
3.26462
3.63032
3.72538
3.68104
3.57186
3.43929
3.369
3.31589
3.26662
3.25472
3.24886
3.29794
3.45019
3.73364
4.10053
4.34724
4.51088
4.52446
4.46535
4.33061
4.1996
4.1116
4.05092
3.98047
3.90723
3.83187
3.77217
3.668
3.7492
3.73997
3.70591
3.56276
3.28542
2.98844
2.65224
2.29128
2.04157
1.85826
1.67738
1.54111
1.41601
1.21124
1.14051
1.13323
1.10741
1.13415
1.40591
2.19032
3.07132
3.42483
3.36973
3.22615
3.06553
2.93474
2.85532
2.77749
2.71032
2.63169
2.55003
2.4682
2.5724
3.21782
4.46198
5.42849
5.65877
5.60709
5.41705
5.14897
4.86281
4.62696
4.44426
4.31402
4.21638
4.10933
4.00364
3.90301
3.76839
3.58398
3.4126
3.29331
3.20236
3.12162
3.04744
2.97984
2.91393
2.8382
2.75042
2.66464
2.57519
2.47677
2.3869
2.34612
2.38407
2.60256
3.08577
3.57236
3.87809
3.9301
3.89819
3.74711
3.52946
3.41185
3.35945
3.32381
3.30626
3.2779
3.24105
3.21502
3.17489
3.20228
3.37165
3.70121
4.0322
4.24554
4.32788
4.3147
4.24594
4.17903
4.1162
4.03459
3.94793
3.85245
3.76607
3.63955
3.72456
3.73525
3.719
3.6837
3.54092
3.28844
2.98192
2.68633
2.4315
2.16107
1.88334
1.76611
1.68942
1.53023
1.32862
1.24777
1.30783
1.711
2.65578
3.48071
3.69593
3.59233
3.38832
3.20848
3.05529
2.92811
2.82777
2.73432
2.63546
2.5375
2.44418
2.35202
2.26728
2.28941
2.60262
3.51805
4.65092
5.36422
5.35022
5.15319
4.82225
4.56586
4.38942
4.25153
4.15291
4.06187
3.97204
3.8642
3.71845
3.54387
3.37919
3.26624
3.18593
3.11541
3.03911
2.94809
2.85919
2.79349
2.72394
2.64248
2.57446
2.49537
2.45249
2.5524
2.89268
3.39192
3.8585
4.02857
4.03629
4.00553
3.90526
3.71751
3.51046
3.42733
3.38642
3.34737
3.30572
3.26899
3.23337
3.1891
3.13974
3.03511
2.97956
3.07073
3.34916
3.73368
4.05207
4.25489
4.277
4.22757
4.12987
4.00653
3.91035
3.82112
3.73831
3.62531
3.70598
3.70641
3.70626
3.68557
3.6393
3.51098
3.28575
2.95879
2.71845
2.51682
2.25654
1.97181
1.84143
1.76673
1.61928
1.70491
2.294
3.36138
4.11321
4.10586
3.944
3.70282
3.4832
3.30942
3.14295
2.9903
2.85586
2.74073
2.61812
2.50565
2.39366
2.29407
2.21659
2.16787
2.12276
2.22431
2.77455
3.87827
4.75202
4.90486
4.80532
4.59291
4.40447
4.23537
4.11516
4.01286
3.91297
3.80254
3.67298
3.51807
3.36304
3.24753
3.16399
3.08458
3.00094
2.91344
2.83131
2.75101
2.6684
2.63906
2.60304
2.6397
2.83823
3.2871
3.73093
4.05055
4.21742
4.21261
4.15053
4.02815
3.87555
3.69275
3.52088
3.4508
3.41081
3.3665
3.31857
3.27762
3.24163
3.19878
3.13984
3.0323
2.90683
2.86759
2.91319
3.13018
3.4967
3.91782
4.14043
4.15926
4.13837
4.04911
3.90474
3.77014
3.70157
3.61972
3.75946
3.73736
3.71865
3.69927
3.68222
3.62559
3.4878
3.26105
2.98023
2.72966
2.54683
2.28918
2.07753
1.99456
2.21366
3.11863
4.32994
4.77595
4.66685
4.37953
4.08842
3.84377
3.63492
3.45162
3.27892
3.11538
2.96962
2.8306
2.68029
2.53392
2.39219
2.26996
2.20009
2.12796
2.06389
1.9929
2.00339
2.26584
3.01609
4.00251
4.54028
4.52736
4.43753
4.24429
4.07475
3.94451
3.84476
3.74445
3.62804
3.49225
3.35196
3.22385
3.12502
3.03683
2.96002
2.88302
2.80621
2.7388
2.68656
2.7003
2.83625
3.23927
3.78789
4.08208
4.18868
4.26418
4.2624
4.19093
4.10478
3.99766
3.84586
3.67269
3.55341
3.49295
3.44386
3.39093
3.3374
3.28361
3.22865
3.17112
3.11538
3.03951
2.92098
2.84015
2.82498
2.84282
2.98852
3.32839
3.74598
4.00635
4.07
4.0516
3.89581
3.71395
3.66457
3.62105
3.78594
3.76496
3.73145
3.7134
3.70908
3.6935
3.6215
3.47093
3.24856
2.99121
2.76796
2.50561
2.5403
3.03152
4.2379
5.42258
5.58257
5.37252
4.99029
4.61907
4.30181
4.04302
3.82329
3.61944
3.42177
3.22846
3.05787
2.89951
2.74907
2.60183
2.4615
2.32903
2.22445
2.12864
2.04483
1.9571
1.88857
1.86648
1.9542
2.42019
3.2972
4.02344
4.20074
4.15555
4.01944
3.8833
3.77317
3.67618
3.57043
3.45712
3.33137
3.18805
3.07003
2.97728
2.91183
2.85274
2.80476
2.77167
2.8448
3.16367
3.68247
4.24923
4.44855
4.48401
4.43785
4.35824
4.25369
4.15922
4.06772
3.96326
3.82762
3.6933
3.61157
3.54492
3.48026
3.41542
3.35098
3.28732
3.22563
3.15918
3.0852
3.0118
2.93476
2.8622
2.81381
2.79754
2.80303
2.88487
3.13919
3.47226
3.74113
3.85528
3.79031
3.68242
3.64828
3.63101
3.73011
3.68957
3.6729
3.6824
3.68999
3.70058
3.67231
3.58786
3.41546
3.23222
3.02289
3.21683
4.21157
5.70192
6.44949
6.36044
6.01521
5.6198
5.22329
4.84489
4.50644
4.21635
3.97001
3.75355
3.55321
3.35698
3.16958
2.98293
2.8057
2.64626
2.50614
2.38052
2.26712
2.1657
2.06993
1.97242
1.88081
1.81743
1.77462
1.79924
2.01676
2.62467
3.42322
3.88693
3.93671
3.87627
3.74221
3.62715
3.50925
3.39406
3.27766
3.13637
3.00771
2.92619
2.87885
2.85484
2.88579
3.08435
3.62522
4.28118
4.6359
4.61765
4.5584
4.51254
4.4472
4.36616
4.26531
4.16374
4.05026
3.92559
3.79907
3.72786
3.6706
3.60103
3.52469
3.44618
3.36895
3.29628
3.22815
3.15679
3.06896
2.98551
2.92774
2.88474
2.84536
2.80802
2.77568
2.75402
2.79009
2.90952
3.12688
3.41135
3.59551
3.61533
3.64805
3.65456
3.47832
3.70396
3.77317
3.76541
3.72568
3.70489
3.69039
3.65954
3.55472
3.57804
4.22162
5.75202
7.24674
7.66516
7.4397
6.87658
6.32313
5.85359
5.43342
5.04852
4.70334
4.39659
4.1232
3.87645
3.65262
3.44435
3.25078
3.0682
2.90128
2.74729
2.58814
2.42709
2.27744
2.16584
2.07727
1.99668
1.90824
1.83592
1.76546
1.70981
1.66637
1.73674
2.09539
2.82464
3.43458
3.64488
3.66742
3.59839
3.48325
3.37084
3.24599
3.09639
2.97204
2.91863
2.91215
3.0103
3.43243
4.1364
4.77308
5.0437
5.02076
4.87253
4.64872
4.47727
4.4039
4.34645
4.27372
4.17257
4.04719
3.91608
3.81003
3.74337
3.68031
3.61458
3.54681
3.47173
3.39103
3.31088
3.23326
3.15558
3.06904
2.98471
2.9277
2.88992
2.85524
2.82144
2.78679
2.74205
2.70087
2.67376
2.70743
2.85903
3.15684
3.42414
3.55026
3.64064
2.63897
3.36543
3.65956
3.70023
3.68324
3.68035
3.70634
3.76097
4.04416
5.39815
7.6408
8.42521
8.33247
8.08561
7.68641
7.2155
6.68234
6.15177
5.65896
5.22463
4.85595
4.53972
4.25691
3.99446
3.74952
3.52687
3.31726
3.1097
2.91615
2.75876
2.63674
2.51404
2.3708
2.22604
2.09011
1.97933
1.90573
1.84489
1.76907
1.68901
1.63769
1.58055
1.5802
1.75177
2.2792
2.90262
3.342
3.45628
3.43405
3.35828
3.2151
3.08817
2.98282
3.01467
3.24585
3.87473
4.63166
5.11876
5.13644
5.08618
4.98857
4.87212
4.72542
4.55891
4.42862
4.33643
4.25855
4.15939
4.04316
3.93147
3.84187
3.76841
3.69637
3.62232
3.55072
3.47929
3.40478
3.32754
3.24676
3.15918
3.06513
2.98963
2.94539
2.90876
2.87217
2.83291
2.7914
2.74435
2.6861
2.62195
2.55825
2.57843
2.70892
2.98338
3.2724
3.51041
1.42292
2.33764
3.14751
3.63806
3.66909
3.72669
3.97396
4.69354
6.54526
8.86755
9.85462
9.64594
8.92383
8.23315
7.78105
7.36242
6.87378
6.36043
5.87577
5.43016
5.03051
4.67822
4.36415
4.08246
3.81246
3.55836
3.34235
3.16478
3.00717
2.83998
2.65296
2.48312
2.38056
2.28787
2.16383
2.02996
1.92336
1.87502
1.82685
1.75486
1.6746
1.56856
1.50851
1.48615
1.55339
1.86047
2.43162
2.96629
3.22606
3.20086
3.14857
3.18175
3.38539
3.81408
4.48145
5.16282
5.49381
5.46331
5.28694
5.05706
4.87896
4.79421
4.7088
4.593
4.46202
4.33315
4.23811
4.14655
4.05935
3.97632
3.88522
3.79085
3.69385
3.60333
3.52571
3.4618
3.39984
3.32977
3.24975
3.16569
3.08069
3.00691
2.95772
2.91768
2.88359
2.85336
2.82287
2.77938
2.70809
2.61639
2.53192
2.49235
2.49848
2.58592
2.78734
3.17045
1.02911
1.29701
1.96068
3.07324
3.34042
4.35527
6.06013
7.67991
9.55079
10.0106
9.94804
9.6759
9.19431
8.55335
7.97612
7.44371
6.9089
6.41336
5.99156
5.6004
5.19696
4.81606
4.48167
4.18403
3.89593
3.62092
3.39425
3.19339
3.01705
2.86377
2.70867
2.53702
2.34334
2.21503
2.15146
2.06847
1.9807
1.89874
1.7993
1.68958
1.59801
1.52748
1.47394
1.43963
1.41322
1.42556
1.56881
2.00576
2.64617
2.96505
3.2399
3.91345
4.67284
5.21672
5.57916
5.62857
5.56893
5.4127
5.26052
5.10395
4.92362
4.79804
4.70138
4.61216
4.5196
4.3868
4.25751
4.15994
4.084
4.00723
3.9139
3.80463
3.69651
3.6182
3.5579
3.50027
3.43744
3.36375
3.27871
3.18779
3.10811
3.03893
2.98313
2.9401
2.90289
2.86294
2.81517
2.75607
2.69773
2.632
2.54407
2.47068
2.44269
2.44142
2.48447
2.74983
1.00058
1.01643
1.14816
1.99094
3.44945
6.09735
8.47156
9.76813
10.8387
10.6141
10.0164
9.60503
9.29411
8.78663
8.12139
7.508
7.0097
6.56695
6.13685
5.71466
5.27553
4.86
4.47773
4.12864
3.90848
3.75895
3.56998
3.35889
3.14969
2.94142
2.73588
2.55414
2.38568
2.23453
2.15651
2.12553
2.07229
1.96904
1.82993
1.68864
1.59003
1.53596
1.49096
1.44047
1.38295
1.34485
1.35287
1.45559
1.85638
2.7995
3.81112
4.97441
5.75966
6.1775
6.14128
5.9383
5.60383
5.32945
5.18195
5.10107
4.98027
4.82086
4.68686
4.57426
4.44247
4.32707
4.22285
4.13306
4.05806
3.98717
3.90854
3.81817
3.72361
3.62916
3.52334
3.43802
3.37717
3.3092
3.22542
3.1395
3.08038
3.05149
3.02667
2.99769
2.95464
2.89945
2.8386
2.77458
2.69887
2.60918
2.52999
2.47578
2.43891
2.40955
2.40098
2.48814
1.00041
1.01247
1.18481
1.85257
3.92479
6.06013
8.08077
9.90132
10.7512
10.5387
10.1566
9.78399
9.49665
8.99144
8.24661
7.51822
6.91697
6.42844
5.98972
5.61072
5.31653
4.97983
4.58846
4.23008
3.94077
3.68127
3.46599
3.26586
3.06011
2.90393
2.79585
2.66509
2.50633
2.34015
2.21182
2.10685
2.00774
1.88913
1.7763
1.71873
1.6604
1.6075
1.54994
1.478
1.39528
1.35274
1.35238
1.42207
1.77862
2.65825
3.95431
4.92007
5.59926
6.18885
6.17508
5.82588
5.46915
5.29758
5.16975
5.10839
5.03729
4.90829
4.76111
4.60392
4.41518
4.28456
4.23505
4.17677
4.10579
4.03907
3.96634
3.88197
3.78113
3.66273
3.53663
3.42496
3.3558
3.29245
3.20607
3.13954
3.10338
3.06729
3.02614
2.97952
2.92718
2.86188
2.79085
2.72936
2.67142
2.60133
2.53397
2.48717
2.45345
2.41718
2.40413
2.48091
1.02726
1.23566
2.04833
2.88986
3.72732
4.39755
5.66692
7.72463
9.22775
9.91675
10.0202
9.84745
9.39159
8.73008
8.09404
7.47677
6.89292
6.38246
5.94593
5.54391
5.14086
4.75858
4.42181
4.12733
3.8621
3.63873
3.45015
3.27392
3.09374
2.89293
2.68957
2.53145
2.40332
2.28051
2.15967
2.05374
1.97068
1.87856
1.7655
1.66224
1.59933
1.55221
1.50189
1.45975
1.4152
1.4297
1.5923
2.03014
2.62274
2.88532
3.33858
3.85612
4.45507
5.28589
5.55511
5.52947
5.50502
5.43649
5.29229
5.15356
5.00485
4.87339
4.73924
4.58849
4.42798
4.28495
4.16982
4.09895
4.04089
3.98256
3.91346
3.83209
3.73668
3.64309
3.55424
3.44356
3.33991
3.26601
3.22232
3.19102
3.15272
3.10694
3.05565
2.99518
2.93115
2.86095
2.78207
2.70444
2.64613
2.60639
2.57036
2.52763
2.5025
2.48382
2.50249
2.69721
1.38266
2.28886
3.20919
3.53033
3.71422
3.75715
3.91018
4.69645
6.59599
8.82247
9.94272
9.81258
9.08033
8.33611
7.81384
7.31672
6.78435
6.25415
5.77016
5.34536
4.96693
4.65126
4.39474
4.15347
3.90062
3.63769
3.38399
3.16724
2.98845
2.81843
2.63944
2.47527
2.35999
2.27414
2.17474
2.07048
1.97501
1.87147
1.75828
1.65252
1.58505
1.54044
1.50896
1.48587
1.55402
1.89786
2.47841
2.96301
3.18095
3.15656
3.14125
3.16151
3.31725
3.83338
4.61919
5.21982
5.48875
5.48197
5.32563
5.10599
4.92127
4.83357
4.73393
4.59345
4.44596
4.3128
4.1818
4.08454
4.0365
3.98133
3.91075
3.83278
3.74723
3.64496
3.53214
3.42192
3.32616
3.25106
3.19086
3.1506
3.11076
3.06859
3.02423
2.97509
2.91967
2.85808
2.77964
2.68524
2.60915
2.56553
2.54271
2.54672
2.56087
2.62231
2.75523
3.06968
2.4838
3.41918
3.73655
3.72942
3.69795
3.67716
3.67439
3.70564
4.02253
5.35078
7.54688
8.5029
8.38847
8.11218
7.6554
7.11824
6.56827
6.04667
5.58399
5.19189
4.87274
4.60466
4.34928
4.08547
3.81947
3.55024
3.29221
3.07095
2.89044
2.74217
2.61132
2.48935
2.37347
2.25855
2.13747
2.01896
1.91569
1.84947
1.78968
1.70135
1.62499
1.57669
1.58556
1.74949
2.25918
2.94174
3.35494
3.43133
3.40825
3.29878
3.14846
3.05944
3.0215
3.06991
3.38861
4.03507
4.73571
5.0671
5.06857
5.00902
4.92305
4.83048
4.709
4.57341
4.45244
4.34582
4.21803
4.10567
4.03541
3.96783
3.88811
3.80359
3.71906
3.63008
3.52903
3.41693
3.3249
3.25318
3.19392
3.14733
3.10542
3.0635
3.02171
2.97601
2.91894
2.84179
2.7438
2.64904
2.59274
2.57744
2.57569
2.6205
2.7755
3.02914
3.28949
3.42516
3.39133
3.73494
3.8151
3.7996
3.74456
3.69405
3.68946
3.66846
3.55738
3.56528
4.14267
5.72597
7.21608
7.6339
7.40482
6.81762
6.2719
5.8176
5.42396
5.07275
4.76088
4.47759
4.21087
3.95202
3.70072
3.45443
3.21873
3.00649
2.83103
2.68497
2.54886
2.41765
2.29616
2.18759
2.10011
2.0255
1.93404
1.83963
1.74596
1.6992
1.66277
1.71833
2.09162
2.78324
3.44039
3.68858
3.66743
3.56676
3.42567
3.30356
3.18693
3.08065
3.01025
2.98118
2.97777
3.10172
3.47263
4.05414
4.6618
4.93524
4.93158
4.81019
4.66037
4.55213
4.47751
4.39057
4.27211
4.122
3.99072
3.91114
3.83556
3.75866
3.68911
3.62337
3.54655
3.44466
3.324
3.22823
3.17273
3.13673
3.10148
3.06426
3.02466
2.97601
2.90637
2.81522
2.71522
2.63983
2.62296
2.63515
2.73119
2.96746
3.28529
3.56634
3.65243
3.61535
3.69528
3.66444
3.67928
3.69992
3.70668
3.71122
3.68127
3.60091
3.43128
3.24487
3.01777
3.20261
4.20255
5.69297
6.38003
6.32232
5.99744
5.60544
5.23003
4.88735
4.57647
4.29339
4.03364
3.79071
3.56199
3.33766
3.11979
2.91575
2.7353
2.57987
2.47311
2.39167
2.30545
2.20843
2.10129
1.99088
1.88846
1.8161
1.75417
1.76414
1.97817
2.59367
3.41229
3.86981
3.94859
3.88655
3.74719
3.61431
3.46113
3.33968
3.24814
3.16099
3.08215
3.00724
2.94722
2.88132
2.88617
3.02513
3.47964
4.10666
4.54973
4.612
4.64554
4.62748
4.56437
4.45164
4.29782
4.12318
3.94995
3.85942
3.79022
3.72588
3.67294
3.62136
3.56024
3.47074
3.33812
3.22
3.16972
3.13384
3.09526
3.05418
3.00882
2.95399
2.88352
2.79698
2.70778
2.67622
2.70423
2.85562
3.17173
3.51152
3.76124
3.82077
3.80828
3.71365
3.77677
3.75186
3.72575
3.71662
3.71448
3.69451
3.62156
3.47567
3.25971
3.00083
2.77119
2.50578
2.5397
3.03567
4.23614
5.45423
5.60901
5.38722
5.00829
4.64837
4.34109
4.077
3.83205
3.59994
3.38391
3.18001
2.98997
2.82745
2.69843
2.57796
2.46917
2.362
2.2685
2.17442
2.07339
1.95597
1.89067
1.84023
1.92034
2.37834
3.22608
4.00159
4.22928
4.2145
4.12569
3.9694
3.7913
3.6228
3.47937
3.37112
3.28941
3.21342
3.13887
3.05743
2.9713
2.86851
2.79845
2.73235
2.78053
3.06124
3.66265
4.23995
4.53724
4.60915
4.56338
4.42473
4.27285
4.1195
3.95572
3.84787
3.77111
3.71182
3.66404
3.61551
3.5615
3.48623
3.3663
3.23321
3.15729
3.11108
3.06575
3.02222
2.97676
2.92578
2.87391
2.80816
2.76859
2.81809
3.00022
3.34896
3.69053
3.85825
3.90498
3.88586
3.8351
3.72344
3.76216
3.73627
3.71424
3.69859
3.68295
3.62436
3.48656
3.26271
2.98395
2.73624
2.54868
2.2894
2.07805
1.99665
2.22211
3.16678
4.38937
4.79567
4.69137
4.40479
4.11051
3.85576
3.6199
3.40845
3.22998
3.07334
2.91913
2.77557
2.65232
2.54086
2.43121
2.33143
2.25171
2.16881
2.08867
1.98832
1.98081
2.17702
2.92584
3.89859
4.47854
4.58384
4.51752
4.37749
4.21248
4.02961
3.83431
3.65025
3.50723
3.40297
3.32256
3.24691
3.17285
3.09584
3.01423
2.91327
2.79116
2.68108
2.62682
2.64416
2.81906
3.29658
3.88213
4.22189
4.33002
4.31067
4.24021
4.11755
3.97007
3.85657
3.7679
3.69953
3.65043
3.60534
3.55667
3.49056
3.38194
3.23748
3.13164
3.07425
3.0264
2.98608
2.94926
2.92488
2.89635
2.91382
3.01776
3.24819
3.58007
3.84817
3.90333
3.94165
3.91373
3.87385
3.8333
3.73411
3.70602
3.70664
3.70605
3.68484
3.63498
3.50426
3.2805
2.95705
2.72123
2.51924
2.25541
1.97204
1.84449
1.76839
1.62002
1.71531
2.32529
3.36058
4.12105
4.11387
3.95228
3.70898
3.46675
3.25421
3.09506
2.96992
2.84374
2.71569
2.60812
2.53278
2.44967
2.37453
2.28138
2.21585
2.13388
2.20667
2.71572
3.67839
4.58829
4.80817
4.80368
4.67476
4.50943
4.36065
4.21041
4.04422
3.87311
3.70338
3.55748
3.43905
3.3459
3.27442
3.21318
3.14582
3.06649
2.95657
2.81287
2.6789
2.5976
2.5673
2.56102
2.63423
2.94272
3.40174
3.89609
4.17698
4.16083
4.08172
3.97101
3.87062
3.77619
3.69487
3.64021
3.59057
3.53707
3.47494
3.38243
3.24127
3.10733
3.03893
2.99999
2.96523
2.95282
2.9606
3.06526
3.3162
3.62509
3.89523
4.0753
4.03229
3.93151
3.89261
3.8734
3.88352
3.86522
3.78107
3.72342
3.73457
3.71939
3.68382
3.53994
3.28633
2.97956
2.68552
2.43293
2.16019
1.88304
1.77028
1.692
1.52792
1.32772
1.2477
1.31057
1.7019
2.62807
3.49029
3.68781
3.56382
3.359
3.16414
3.0275
2.93814
2.84559
2.73219
2.63549
2.57773
2.5014
2.42904
2.31713
2.32723
2.59712
3.49347
4.55424
5.18679
5.24358
5.12592
4.92871
4.723
4.53959
4.37421
4.21581
4.05572
3.9023
3.76118
3.63058
3.50271
3.38425
3.30478
3.25006
3.19437
3.11099
2.99038
2.82695
2.69511
2.61289
2.55811
2.51883
2.49894
2.51933
2.66237
2.98817
3.51697
3.79587
3.90312
3.92708
3.88695
3.81112
3.71668
3.64038
3.57973
3.5178
3.44918
3.35837
3.22931
3.09649
3.02319
2.99794
2.98865
3.02215
3.20495
3.60436
4.01897
4.24943
4.31997
4.26618
4.07394
3.89992
3.86073
3.85002
3.85872
3.83256
3.7482
3.7496
3.73983
3.70553
3.56204
3.28467
2.98809
2.65031
2.29153
2.04245
1.85776
1.67849
1.54352
1.41483
1.207
1.14268
1.13502
1.10674
1.13128
1.39041
2.17104
3.09167
3.39593
3.34128
3.19842
3.061
2.97518
2.90095
2.80227
2.71456
2.6447
2.57452
2.49558
2.60775
3.24345
4.41322
5.39574
5.551
5.51903
5.35966
5.16325
4.96988
4.77212
4.57095
4.37106
4.19462
4.04531
3.91966
3.8043
3.69367
3.58202
3.46946
3.36552
3.2696
3.20311
3.14007
3.02905
2.86334
2.71758
2.63287
2.57887
2.53475
2.48237
2.45302
2.44568
2.48358
2.69548
3.0816
3.47391
3.77448
3.85517
3.82628
3.74333
3.64507
3.56169
3.48945
3.41839
3.33975
3.23289
3.1016
3.03596
3.03727
3.11776
3.39487
3.83186
4.2785
4.46111
4.46118
4.41552
4.26122
4.0267
3.89988
3.86668
3.85422
3.83772
3.80858
3.74394
3.73835
3.70684
3.5743
3.28303
2.96623
2.61739
2.15822
1.90993
1.77939
1.58211
1.38432
1.28303
1.16389
1.04417
1.02924
1.01459
0.978648
0.950603
0.969322
1.17822
1.88331
2.91304
3.23585
3.23353
3.20049
3.1205
3.03857
2.94084
2.8595
2.75864
2.76825
3.04524
4.11974
5.37312
6.05197
6.10051
5.90969
5.61607
5.36802
5.16611
4.98612
4.78928
4.57446
4.36686
4.19858
4.06327
3.94664
3.83276
3.7103
3.59338
3.50958
3.44598
3.35099
3.23137
3.09539
2.96558
2.86843
2.78253
2.69182
2.60735
2.54708
2.50702
2.47127
2.41174
2.33083
2.3336
2.44535
2.74631
3.1994
3.58644
3.65282
3.64365
3.60775
3.53894
3.46118
3.38276
3.30373
3.22895
3.13054
3.14126
3.26983
3.61688
4.04522
4.41637
4.59477
4.60883
4.56099
4.42595
4.23423
4.05184
3.97351
3.93158
3.88489
3.83621
3.79542
3.71068
3.71273
3.59955
3.2918
2.90661
2.5566
2.08676
1.75299
1.63389
1.46264
1.23428
1.17913
1.13706
1.0244
0.977571
0.987412
0.983207
0.961452
0.943467
0.940851
0.953834
1.10037
1.79318
2.80844
3.19431
3.3018
3.29423
3.21673
3.12348
3.01577
3.10193
3.68907
5.07602
6.36432
6.47895
6.41384
6.16798
5.90941
5.67473
5.45291
5.22661
5.0037
4.78977
4.58425
4.38965
4.22276
4.08999
3.9876
3.89673
3.79777
3.68894
3.57261
3.43736
3.30773
3.18489
3.06471
2.95429
2.87382
2.8125
2.74946
2.68704
2.62942
2.55843
2.45789
2.35781
2.28271
2.25423
2.25088
2.29735
2.51803
2.92279
3.27743
3.48628
3.52321
3.50149
3.44379
3.37371
3.31962
3.30957
3.393
3.6117
3.95667
4.34793
4.5395
4.61943
4.61768
4.54967
4.45366
4.3384
4.22382
4.12472
4.0603
3.99634
3.9349
3.87184
3.79593
3.66273
3.64906
3.33178
2.8449
2.42412
1.99783
1.58863
1.41193
1.28274
1.09756
0.994402
0.980927
0.942098
0.919063
0.925125
0.9472
0.959354
0.956037
0.960112
0.977883
0.997845
1.01913
1.14254
1.77963
2.67386
3.25411
3.32675
3.31977
3.34453
3.58811
4.5835
6.09454
7.04192
7.18449
6.96366
6.49283
6.11692
5.87871
5.66926
5.45273
5.22163
4.99302
4.77603
4.58413
4.42408
4.28645
4.16563
4.05473
3.93416
3.79656
3.65265
3.51814
3.39884
3.28395
3.16627
3.05603
2.9719
2.92067
2.86959
2.80102
2.70537
2.59897
2.51354
2.42995
2.34411
2.27682
2.24091
2.21834
2.21419
2.24399
2.35058
2.60252
2.98738
3.22224
3.32515
3.35244
3.38395
3.48169
3.67916
4.06726
4.44039
4.71303
4.83328
4.80668
4.67243
4.52305
4.40434
4.33567
4.28607
4.21747
4.16286
4.11822
4.04348
3.92481
3.82682
3.7457
3.6358
3.38115
2.74842
2.23383
1.80157
1.37916
1.23323
1.17371
1.06174
0.978788
0.952001
0.921291
0.90617
0.913363
0.938057
0.971286
0.986523
0.988802
0.993648
1.01053
1.03393
1.03699
1.04181
1.12581
1.61444
2.53198
3.06873
3.59987
4.3033
5.616
6.75482
7.44285
7.37525
7.05541
6.72034
6.44265
6.19539
5.94846
5.71361
5.49961
5.28046
5.05367
4.84871
4.68131
4.54164
4.41676
4.29728
4.17055
4.02579
3.86523
3.69741
3.52636
3.37395
3.26984
3.1951
3.12949
3.08438
3.03931
2.98159
2.90065
2.78314
2.62654
2.47679
2.41552
2.37728
2.33578
2.29741
2.26759
2.23944
2.20696
2.18041
2.22343
2.38212
2.71865
3.00085
3.23029
3.56241
3.95158
4.30892
4.72871
4.9276
4.97157
4.93871
4.79987
4.61609
4.44211
4.35919
4.31525
4.30322
4.29403
4.2536
4.20253
4.11832
3.9645
3.77147
3.69442
3.64235
2.667
1.72555
1.16218
0.782133
0.649426
0.674193
0.739554
0.741845
0.757311
0.819973
0.874229
0.916097
0.969232
1.0383
1.05351
1.04942
1.03717
1.03868
1.05275
1.07429