/*--------------------------------*- C++ -*----------------------------------*\
  =========                 |
  \\      /  F ield         | OpenFOAM: The Open Source CFD Toolbox
   \\    /   O peration     | Website:  https://openfoam.org
    \\  /    A nd           | Version:  7
     \\/     M anipulation  |
\*---------------------------------------------------------------------------*/
FoamFile
{
    version     2.0;
    format      ascii;
    class       volScalarField;
    location    "3.2";
    object      T;
}
// * * * * * * * * * * * * * * * * * * * * * * * * * * * * * * * * * * * * * //

dimensions      [0 0 0 1 0 0 0];

internalField   nonuniform List<scalar> 
4608
(
1
1
1
1
1
1
1
1
1
1
1
1
1
1
1
1
1
1
1
1
1
1
1
1
1
1
1
1
1
1
1
1
1
1
1
1
1
1
1
1
1
1
1
1
1
1
1
1
1
1
1
1
1
1
1
1
1
1
1
1
1
1
1
1
1
1
1
1
1
1
1
1
1
1
1
1
1
1
1
1
1
1
1
1
1
1
1
1
1
1
1
1
1
1
1
1
1
1
1
1
1
1
1
1
1
1
1
1
1
1
1
1
1
1
1
1
1
1
1
1
1
1
1
1
1
1
1
1
1
1
1
1
1
1
1
1
1
1
1
1
1
1
1
1
1
1
1
1
1
1
1
1
1
1
1
1
1
1
1
1
1
1
1
1
1
1
1
1
1
1
1
1
1
1
1
1
1
1
1
1
1
1
1
1
1
1
1
1
1
1
1
1
1
1
1
1
1
1
1
1
1
1
1
1
1
1
1
1
1
1
1
1
1
1
1
1
1
1
1
1
1
1
1
1
1
1
1
1
1
1
1
1
1
1
1
1
1
1
1
1
1
1
1
1
1
1
1
1
1
1
1
1
1
1
1
1
1
1
1
1
1
1
1
1
1
1
1
1
1
1
1
1
1
1
1
1
1
1
1
1
1
1
1
1
1
1
1
1
1
1
1
1
1
1
1
1
1
1
1
1
1
1
1
1
1
1
1
1
1
1
1
1
1
1
1
1
1
1
1
1
1
1
1
1
1
1
1
1
1
1
1
1
1
1
1
1
1
1
1
1
1
1
1
1
1
1
1
1
1
1
1
1
1
1
1
1
1
1
1
1
1
1
1
1
1
1
1
1
1
1
1
1
1
1
1
1
1
1
1
1
1
1
1
1
1
1
1
1
1
1
1
1
1
1
1
1
1
1
1
1
1
1
1
1
1
1
1
1
1
1
1
1
1
1
1
1
1
1
1
1
1
1
1
1
1
1
1
1
1
1
1
1
1
1
1
1
1
1
1
1
1
1
1
1
1
1
1
1
1
1
1
1
1
1
1
1
1
1
1
1
1
1
1
1
1
1
1
1
1
1
1
1
1
1
1
1
1
1
1
1
1
1
1
1
1
1
1
1
1
1
1
1
1
1
1
1
1
1
1
1
1
1
1
1
1
1
1
1
1
1
1
1
1
1
1
1
1
1
1
1
1
1
1
1
1
1
1
1
1
1
1
1
1
1
1
1
1
1
1
1
1
1
1
1
1
1
1
1
1
1
1
1
1
1
1
1
1
1
1
1
1
1
1
1
1
1
1
1
1
1
1
1
1
1
1
1
1
1
1
1
1
1
1
1
1
1
1
1
1
1
1
1
1
1
1
1
1
1
1
1
1
1
1
1
1
1
1
1
1
1
1
1
1
1
1
1
1
1
1
1
1
1
1
1
1
1
1
1
1
1
1
1
1
1
1
1
1
1
1
1
1
1
1
1
1
1
1
1
1
1
1
1
1
1
1
1
1
1
1
1
1
1
1
1
1
1
1
1
1
1
1
1
1
1
1
1
1
1
1
1
1
1
1
1
1
1
1
1
1
1
1
1
1
1
1
1
1
1
1
1
1
1
1
1
1
1
1
1
1
1
1
1
1
1
1
1
1
1
1
1
1
1
1
1
1
1
1
1
1
1
1
1
1
1
1
1
1
1
1
1
1
1
1
1
1
1
1
1
1
1
1
1
1
1
1
1
1
1
1
1
1
1
1
1
1
1
1
1
1.07833
1.18345
1.2856
1.39038
1.488
1.56975
1.63918
1.684
1.698
1.68183
1.63818
1.58583
1.54328
1.5254
1.51389
1.51493
1.51979
1.52511
1.53036
1.53317
1.53478
1.53628
1.53891
1.54132
1.00075
1.006
1.03065
1.0713
1.14627
1.23151
1.32405
1.40528
1.48287
1.51948
1.54724
1.56277
1.56165
1.55527
1.54135
1.53645
1.53286
1.53087
1.53288
1.53536
1.53702
1.53882
1.54054
1.54236
1
0.999981
1.00008
1.00007
1.00126
1.00821
1.03707
1.11709
1.26666
1.45301
1.56545
1.62312
1.62223
1.61263
1.59199
1.56242
1.5393
1.53757
1.54111
1.54436
1.54512
1.54565
1.54567
1.54624
1
0.999999
0.999999
1
0.999996
1.00001
0.999967
1.00069
1.01155
1.11275
1.30553
1.50702
1.59873
1.61116
1.60561
1.59404
1.57105
1.56175
1.56289
1.56088
1.55796
1.557
1.55626
1.55639
1
1
1
1
1
1
0.999996
0.999997
0.999962
1.00059
1.01551
1.12689
1.34926
1.52625
1.6284
1.62572
1.61276
1.60265
1.59067
1.57984
1.57281
1.571
1.56949
1.57054
1
1
1
1
1
1
1
1
0.999997
0.999997
0.999963
1.00096
1.03155
1.16532
1.40472
1.55388
1.61955
1.61867
1.61116
1.59969
1.58847
1.58392
1.57961
1.57983
1
1
1
1
1
1
1
1
1
1
0.999997
0.999994
1.00001
1.00288
1.06246
1.24675
1.47442
1.56144
1.6012
1.60491
1.60044
1.58751
1.58307
1.58099
1
1
1
1
1
1
1
1
1
1
1
0.999999
0.999999
0.999989
1.00045
1.01177
1.12621
1.33603
1.53039
1.58404
1.59007
1.58669
1.58406
1.58251
1
1
1
1
1
1
1
1
1
1
1
1
1
0.999998
0.999999
0.999989
1.00288
1.04485
1.22239
1.43401
1.55533
1.58883
1.58926
1.58809
1
1
1
1
1
1
1
1
1
1
1
1
1
1
1
0.999999
0.999991
1.00033
1.01453
1.13492
1.361
1.50009
1.55628
1.58149
1
1
1
1
1
1
1
1
1
1
1
1
1
1
1
1
0.999999
0.999998
1.00005
1.00511
1.06966
1.27724
1.47017
1.56167
1
1
1
1
1
1
1
1
1
1
1
1
1
1
1
1
1
1
0.999999
1
1.0016
1.04225
1.2083
1.43215
1
1
1
1
1
1
1
1
1
1
1
1
1
1
1
1
1
1
1
1
0.999999
1.00076
1.02171
1.14998
1
1
1
1
1
1
1
1
1
1
1
1
1
1
1
1
1
1
1
1
1
0.999999
1.00034
1.00837
1
1
1
1
1
1
1
1
1
1
1
1
1
1
1
1
1
1
1
1
1
1
1
1.00001
1
1
1
1
1
1
1
1
1
1
1
1
1
1
1
1
1
1
1
1
1
1
1
0.999999
1
1
1
1
1
1
1
1
1
1
1
1
1
1
1
1
1
1
1
1
1
1
1
0.999999
1
1
1
1
1
1
1
1
1
1
1
1
1
1
1
1
1
1
1
1
1
1
0.999999
1
1
1
1
1
1
1
1
1
1
1
1
1
1
1
1
1
1
1
1
1
1
0.999999
1.00027
1.01015
1
1
1
1
1
1
1
1
1
1
1
1
1
1
1
1
1
1
1
1
0.999999
1.00089
1.02129
1.15967
1
1
1
1
1
1
1
1
1
1
1
1
1
1
1
1
1
1
0.999999
1
1.00154
1.04343
1.21805
1.42218
1
1
1
1
1
1
1
1
1
1
1
1
1
1
1
1
0.999999
0.999997
1.00005
1.00528
1.06868
1.27865
1.47877
1.55646
1
1
1
1
1
1
1
1
1
1
1
1
1
1
1
0.999999
0.999991
1.00033
1.01448
1.13531
1.36078
1.50369
1.55455
1.57954
1
1
1
1
1
1
1
1
1
1
1
1
1
0.999998
0.999999
0.999989
1.00288
1.04485
1.22346
1.43184
1.55652
1.58978
1.58928
1.58758
1
1
1
1
1
1
1
1
1
1
1
0.999999
0.999999
0.999989
1.00045
1.01179
1.12597
1.3363
1.53116
1.58294
1.59024
1.58703
1.58431
1.58223
1
1
1
1
1
1
1
1
1
1
0.999997
0.999994
1.00001
1.00288
1.06249
1.24672
1.47436
1.56179
1.60107
1.60464
1.60022
1.58771
1.58325
1.58082
1
1
1
1
1
1
1
1
0.999997
0.999997
0.999963
1.00096
1.03155
1.16533
1.40484
1.5537
1.61963
1.61875
1.61123
1.59956
1.58841
1.58407
1.57961
1.57985
1
1
1
1
1
1
0.999996
0.999997
0.999962
1.00059
1.01551
1.12688
1.34924
1.52631
1.62839
1.62568
1.61273
1.60269
1.59073
1.57975
1.57283
1.57104
1.56946
1.57055
1
0.999999
0.999999
1
0.999996
1.00001
0.999967
1.00069
1.01155
1.11273
1.30555
1.50697
1.59879
1.61117
1.60559
1.59404
1.57094
1.5618
1.56291
1.56085
1.55794
1.55699
1.55625
1.5564
1
0.999981
1.00008
1.00007
1.00126
1.00821
1.03707
1.1171
1.26665
1.453
1.56546
1.62312
1.62223
1.61264
1.592
1.5624
1.53928
1.53761
1.5411
1.54432
1.54514
1.54567
1.54566
1.54623
1.00075
1.006
1.03064
1.07129
1.14627
1.23151
1.32405
1.40528
1.48286
1.51948
1.54724
1.56277
1.56164
1.55527
1.54136
1.53644
1.53287
1.53086
1.53287
1.53536
1.53702
1.53881
1.54051
1.54236
1.07833
1.18345
1.2856
1.39039
1.488
1.56974
1.63919
1.68401
1.698
1.68183
1.63818
1.58583
1.54327
1.52541
1.5139
1.51493
1.5198
1.52511
1.53037
1.53319
1.53479
1.53627
1.53887
1.54131
1.3988
1.2366
1.11624
1.00069
0.962569
0.982934
1.02501
1.02586
1.02927
1.04768
1.06495
1.0786
1.09359
1.11032
1.11225
1.11099
1.10734
1.10752
1.10981
1.11359
1.11464
1.11268
1.11039
1.13389
1.26938
1.51354
1.75166
1.97387
2.14017
2.1854
2.14139
2.06204
2.00083
1.96805
1.94732
1.92552
1.90551
1.88991
1.8754
1.8598
1.84115
1.81907
1.79412
1.76712
1.74189
1.72211
1.70632
1.69364
1.6838
1.67458
1.66395
1.65089
1.63508
1.61656
1.59615
1.57574
1.55827
1.54476
1.53413
1.52547
1.51828
1.51046
1.50232
1.49284
1.48133
1.46595
1.44672
1.42843
1.41277
1.40618
1.40625
1.41488
1.45454
1.54423
1.65657
1.74872
1.80909
1.85106
1.87062
1.86502
1.85254
1.83406
1.81929
1.80891
1.79794
1.78655
1.77636
1.7663
1.75454
1.73862
1.72343
1.71737
1.71388
1.71014
1.70767
1.69876
1.49679
1.41196
1.33223
1.25103
1.15089
1.12054
1.11354
1.08497
1.05946
1.05594
1.05079
1.05169
1.05478
1.06166
1.07072
1.07571
1.07754
1.08003
1.08482
1.09078
1.09222
1.09449
1.12052
1.2861
1.49313
1.55552
1.62985
1.72482
1.86217
1.97002
2.04594
2.04067
2.01548
1.98504
1.95452
1.92795
1.91142
1.89671
1.88147
1.86492
1.84554
1.82366
1.79976
1.77349
1.74895
1.7309
1.71722
1.70378
1.69214
1.68199
1.67104
1.65849
1.64332
1.62418
1.60248
1.58178
1.56726
1.55691
1.54643
1.53596
1.52678
1.51793
1.50874
1.4987
1.48741
1.47244
1.45388
1.43686
1.42323
1.42364
1.43503
1.47737
1.54415
1.60646
1.64165
1.68463
1.7408
1.77284
1.79337
1.81432
1.83163
1.83341
1.82719
1.81627
1.80355
1.79038
1.77903
1.77026
1.75973
1.74305
1.72627
1.7204
1.71796
1.71547
1.71187
1.70208
1.53242
1.49212
1.42602
1.36137
1.28599
1.20517
1.16698
1.13458
1.08587
1.05704
1.05401
1.04314
1.03716
1.03917
1.04637
1.05117
1.05073
1.05251
1.0588
1.06508
1.07166
1.11071
1.2842
1.49539
1.57867
1.58324
1.58233
1.58709
1.62406
1.75971
1.93505
2.02477
2.03341
2.01208
1.96514
1.92886
1.90471
1.88578
1.86554
1.84614
1.82953
1.81219
1.79349
1.77488
1.75626
1.73626
1.71516
1.69568
1.6797
1.66771
1.65665
1.64473
1.63128
1.61476
1.59602
1.58049
1.56861
1.55546
1.54144
1.52827
1.51582
1.50416
1.49313
1.48231
1.47201
1.45982
1.44942
1.4406
1.44189
1.46228
1.51694
1.58644
1.62714
1.63708
1.64163
1.64581
1.6593
1.68722
1.72913
1.77796
1.81339
1.82731
1.83005
1.82532
1.81379
1.79825
1.78428
1.77227
1.75934
1.74315
1.7305
1.72379
1.71853
1.71295
1.70741
1.69607
1.55049
1.53342
1.49197
1.43813
1.38514
1.30673
1.24261
1.21624
1.17779
1.12224
1.10637
1.09397
1.06176
1.04896
1.05278
1.05218
1.04601
1.04148
1.04127
1.04583
1.10256
1.28088
1.50936
1.57413
1.57614
1.57288
1.5669
1.5555
1.5435
1.56012
1.65886
1.84969
1.98324
1.98266
1.97217
1.94309
1.9134
1.88716
1.86088
1.83942
1.82628
1.81325
1.79922
1.78471
1.76697
1.74355
1.72111
1.69988
1.6803
1.66542
1.65306
1.63971
1.62547
1.61266
1.60095
1.58931
1.57665
1.56075
1.54482
1.53
1.51502
1.50061
1.48799
1.47695
1.46682
1.45657
1.45462
1.46723
1.50913
1.57629
1.63864
1.66132
1.66434
1.65942
1.65063
1.64194
1.637
1.64009
1.65732
1.69571
1.74292
1.78283
1.80803
1.81075
1.80956
1.80436
1.79257
1.77652
1.76049
1.74643
1.73804
1.73131
1.72406
1.71617
1.70925
1.69619
1.56519
1.55773
1.53788
1.49808
1.45317
1.4011
1.32538
1.27701
1.2499
1.20936
1.16393
1.13767
1.10438
1.06841
1.06607
1.06332
1.05334
1.04494
1.05264
1.12925
1.32303
1.50985
1.58503
1.57969
1.5665
1.5507
1.54281
1.53218
1.52379
1.51154
1.51481
1.57099
1.73421
1.88747
1.95135
1.94467
1.929
1.89602
1.86779
1.84439
1.8237
1.80289
1.78365
1.76852
1.75788
1.7484
1.73354
1.71223
1.68761
1.66721
1.6505
1.63515
1.6198
1.60511
1.59245
1.58119
1.56948
1.56105
1.55191
1.53858
1.52241
1.50458
1.48482
1.47207
1.46538
1.46624
1.49435
1.55744
1.62966
1.68045
1.69635
1.6916
1.67801
1.66038
1.65039
1.64296
1.63621
1.63416
1.63295
1.64017
1.6628
1.70333
1.75257
1.7827
1.80075
1.80081
1.79385
1.77815
1.76293
1.75245
1.74496
1.73606
1.72665
1.71716
1.70957
1.69495
1.57758
1.57404
1.56685
1.54577
1.50743
1.46467
1.41353
1.35401
1.3076
1.27031
1.23369
1.20449
1.17361
1.11857
1.10145
1.10094
1.09503
1.10458
1.1927
1.39133
1.54796
1.60178
1.59487
1.57663
1.55608
1.53826
1.5264
1.51376
1.50207
1.48851
1.47412
1.45999
1.48133
1.59869
1.77258
1.88397
1.90442
1.89906
1.87991
1.85221
1.82187
1.7963
1.77625
1.76176
1.75032
1.73693
1.72331
1.71017
1.69253
1.6682
1.64505
1.62845
1.61547
1.60371
1.59255
1.58211
1.57187
1.56
1.54572
1.53135
1.51619
1.49985
1.4843
1.47726
1.48472
1.52523
1.60619
1.67682
1.71658
1.72457
1.72104
1.70268
1.67423
1.65795
1.65046
1.64534
1.6426
1.63827
1.63277
1.62906
1.62419
1.62908
1.65543
1.70229
1.74452
1.77072
1.77969
1.77799
1.77002
1.76223
1.75476
1.74474
1.73358
1.72126
1.71005
1.6921
1.58194
1.58161
1.5786
1.57261
1.55214
1.51639
1.47111
1.42519
1.38321
1.33453
1.28071
1.25643
1.23967
1.20452
1.15722
1.13798
1.15781
1.27447
1.48037
1.61525
1.64229
1.62848
1.60152
1.57731
1.55592
1.53735
1.52154
1.50501
1.48718
1.46974
1.45293
1.4359
1.41981
1.42445
1.48775
1.64373
1.79437
1.87427
1.87215
1.85145
1.81705
1.78965
1.77042
1.75482
1.74305
1.73149
1.71968
1.70551
1.68672
1.66443
1.64254
1.62676
1.61509
1.60449
1.59285
1.57869
1.56473
1.55433
1.54298
1.52938
1.51756
1.50379
1.49744
1.51633
1.57547
1.65343
1.71804
1.73806
1.73892
1.73543
1.72371
1.70038
1.67265
1.66064
1.6546
1.64868
1.64237
1.63687
1.63177
1.62563
1.61899
1.60383
1.59517
1.6096
1.65144
1.70484
1.7462
1.77129
1.77364
1.7678
1.75604
1.74109
1.72921
1.71772
1.70657
1.69006
1.58126
1.58122
1.58087
1.57753
1.5708
1.55308
1.52154
1.47385
1.43567
1.40175
1.3571
1.30443
1.27769
1.26121
1.2322
1.25897
1.40259
1.59119
1.69486
1.69379
1.67356
1.64255
1.6135
1.58965
1.56579
1.54262
1.52111
1.50228
1.48186
1.46154
1.44016
1.42113
1.40586
1.39554
1.38638
1.40899
1.51865
1.69383
1.79899
1.8198
1.81014
1.7888
1.7685
1.74958
1.73595
1.72351
1.71051
1.6961
1.67996
1.66078
1.64062
1.62465
1.61248
1.60039
1.5874
1.57382
1.56112
1.54813
1.53466
1.52936
1.52327
1.53027
1.56624
1.63838
1.70215
1.7445
1.76218
1.76108
1.75339
1.73871
1.72021
1.69696
1.67401
1.66377
1.65744
1.65042
1.64323
1.63742
1.63248
1.62642
1.61765
1.60206
1.58226
1.57469
1.58193
1.61598
1.66959
1.72713
1.75524
1.75718
1.75474
1.74421
1.72696
1.70993
1.70031
1.6879
1.58574
1.58393
1.58183
1.57945
1.5772
1.57006
1.55228
1.52139
1.48056
1.44159
1.41165
1.3689
1.32883
1.3163
1.37003
1.54386
1.71155
1.76622
1.75484
1.72297
1.68842
1.65776
1.63031
1.60491
1.57974
1.55481
1.53191
1.50988
1.48561
1.46113
1.4367
1.41401
1.39894
1.38303
1.36957
1.35528
1.35838
1.41825
1.55809
1.7027
1.76721
1.77298
1.76558
1.74494
1.72562
1.71006
1.69738
1.68459
1.67051
1.65429
1.63666
1.61926
1.60478
1.59135
1.57967
1.56792
1.55596
1.54524
1.53673
1.53923
1.56301
1.62938
1.70911
1.74782
1.76131
1.76707
1.76585
1.75671
1.74623
1.73304
1.71412
1.69198
1.67591
1.6671
1.65956
1.65143
1.64341
1.63568
1.62795
1.61976
1.6113
1.59956
1.58104
1.56842
1.56335
1.56591
1.5891
1.641
1.70031
1.73266
1.74095
1.73902
1.72067
1.6986
1.69187
1.68456
1.58337
1.58208
1.57987
1.57883
1.57905
1.57788
1.56965
1.55053
1.5208
1.48441
1.45108
1.41016
1.41883
1.51535
1.69656
1.83402
1.84432
1.82303
1.78356
1.74321
1.70697
1.67591
1.64809
1.62073
1.59263
1.56391
1.53778
1.51324
1.48963
1.46603
1.44263
1.41923
1.39908
1.38002
1.3628
1.34445
1.32951
1.32657
1.34738
1.44713
1.59621
1.69767
1.72783
1.72399
1.70953
1.69421
1.68122
1.66952
1.65705
1.64389
1.62851
1.60929
1.59226
1.57851
1.56856
1.55973
1.5526
1.54884
1.56148
1.61377
1.69037
1.7643
1.78987
1.79062
1.78485
1.77442
1.76139
1.74946
1.73782
1.72462
1.70734
1.6897
1.67822
1.66877
1.65961
1.65024
1.64074
1.63141
1.62253
1.61304
1.60205
1.59033
1.57777
1.56616
1.55833
1.55338
1.55366
1.56689
1.60745
1.65616
1.69172
1.7065
1.69897
1.68739
1.68434
1.6803
1.5721
1.56859
1.56821
1.57107
1.57426
1.57646
1.57303
1.56287
1.54178
1.51841
1.49187
1.52767
1.67996
1.85289
1.92119
1.91121
1.87765
1.83872
1.79845
1.75834
1.72087
1.68741
1.65767
1.62994
1.60258
1.57438
1.54674
1.51888
1.49168
1.46656
1.44356
1.42227
1.40186
1.38248
1.36311
1.34344
1.32573
1.31366
1.30461
1.31039
1.36105
1.48349
1.61492
1.67687
1.68932
1.68288
1.6679
1.6551
1.64141
1.62784
1.61378
1.59531
1.57677
1.56446
1.55729
1.55585
1.56187
1.59538
1.67697
1.76251
1.80348
1.8013
1.7937
1.78641
1.77788
1.76812
1.75597
1.74349
1.7297
1.71442
1.69804
1.68791
1.67955
1.66965
1.65896
1.648
1.6371
1.62667
1.61675
1.60629
1.5933
1.58048
1.57112
1.56377
1.55728
1.55057
1.54419
1.54003
1.54631
1.56653
1.60052
1.64063
1.66534
1.67028
1.67742
1.67745
1.53128
1.55965
1.57457
1.57597
1.57396
1.573
1.57199
1.56898
1.55804
1.56377
1.66208
1.83852
1.97786
2.00751
1.98793
1.94156
1.89369
1.85055
1.80934
1.76936
1.73196
1.6979
1.66671
1.63709
1.60829
1.57961
1.55175
1.52518
1.5004
1.47677
1.45105
1.42398
1.39834
1.37803
1.36076
1.34484
1.32811
1.31463
1.3005
1.2883
1.27828
1.29609
1.38053
1.5171
1.61183
1.64126
1.65075
1.64302
1.6294
1.6164
1.60156
1.58162
1.56293
1.55582
1.55698
1.57448
1.64029
1.73578
1.80976
1.8387
1.83643
1.82056
1.7943
1.77503
1.7658
1.758
1.74861
1.73645
1.72202
1.70654
1.69256
1.68257
1.67298
1.66352
1.65422
1.6443
1.63368
1.62272
1.61158
1.60001
1.58712
1.5746
1.56563
1.55912
1.55289
1.5471
1.54158
1.53408
1.52742
1.52419
1.52995
1.5543
1.59903
1.63733
1.65556
1.67006
1.39763
1.50909
1.55053
1.56418
1.5647
1.56559
1.57057
1.57863
1.61759
1.781
1.99395
2.04802
2.04005
2.02041
1.98945
1.95335
1.91113
1.86627
1.82059
1.77701
1.73811
1.70408
1.67326
1.64362
1.61414
1.58517
1.55603
1.52608
1.4977
1.47406
1.45516
1.43504
1.41073
1.38518
1.3603
1.33919
1.32477
1.31314
1.29841
1.28196
1.27052
1.25672
1.25762
1.30248
1.41843
1.52949
1.59719
1.61681
1.61513
1.60725
1.58989
1.57146
1.558
1.56466
1.6016
1.6897
1.7842
1.83666
1.83707
1.8315
1.82127
1.80888
1.79305
1.77562
1.76094
1.74927
1.73943
1.72787
1.71482
1.70177
1.68996
1.67909
1.66794
1.6571
1.64765
1.6389
1.62988
1.62
1.60893
1.59635
1.58241
1.57071
1.56342
1.55729
1.5512
1.54469
1.5381
1.53115
1.52259
1.51282
1.502
1.50508
1.52626
1.56926
1.61128
1.64643
1.13405
1.34447
1.47416
1.54535
1.55551
1.56689
1.60187
1.69066
1.87196
2.05758
2.13022
2.11707
2.06896
2.01839
1.98474
1.95377
1.91665
1.87498
1.83198
1.7892
1.74863
1.71169
1.67793
1.64699
1.61614
1.585
1.55629
1.53117
1.50829
1.4836
1.4554
1.42815
1.41072
1.39454
1.37257
1.34795
1.32732
1.31839
1.3096
1.29542
1.27814
1.25397
1.23916
1.23442
1.25303
1.3314
1.44986
1.54028
1.58083
1.5782
1.5731
1.57988
1.61326
1.6734
1.75254
1.82709
1.86476
1.8626
1.84616
1.82218
1.80229
1.79288
1.78448
1.77225
1.75778
1.74303
1.73196
1.72146
1.71161
1.70196
1.6906
1.6778
1.66398
1.65094
1.64046
1.63263
1.62536
1.61685
1.60625
1.59424
1.5814
1.56982
1.56204
1.55575
1.5504
1.5456
1.54094
1.53468
1.52431
1.5099
1.49615
1.488
1.48874
1.50336
1.53594
1.59637
1.00968
1.09773
1.26444
1.46267
1.50262
1.63732
1.83038
1.96395
2.08017
2.11945
2.12015
2.10698
2.0764
2.03115
1.98972
1.95158
1.91196
1.87254
1.83627
1.80012
1.76104
1.72262
1.6876
1.65525
1.62236
1.5894
1.56055
1.53331
1.5082
1.48587
1.46289
1.43597
1.40363
1.3811
1.36994
1.35538
1.33941
1.32372
1.30366
1.28058
1.26021
1.24376
1.23118
1.22289
1.21687
1.22124
1.26264
1.36751
1.48925
1.54025
1.58316
1.67826
1.77384
1.8315
1.85848
1.8685
1.86483
1.85301
1.83908
1.82264
1.80318
1.78955
1.77931
1.77034
1.76066
1.74599
1.73131
1.72018
1.71153
1.70263
1.69138
1.67734
1.66268
1.65168
1.64345
1.63623
1.62882
1.61999
1.60882
1.59564
1.5834
1.57265
1.56407
1.55732
1.55156
1.54573
1.53892
1.53029
1.52145
1.51118
1.49665
1.48356
1.47801
1.47736
1.4844
1.53037
1.00017
1.00545
1.04918
1.26264
1.51706
1.81187
2.02035
2.10485
2.16532
2.15438
2.12147
2.09622
2.07608
2.04275
1.9973
1.95342
1.91663
1.88206
1.84589
1.80807
1.76676
1.72585
1.68649
1.64809
1.62265
1.60548
1.58285
1.55579
1.52706
1.49716
1.46679
1.43851
1.41078
1.38443
1.37093
1.36639
1.35776
1.33849
1.31016
1.28025
1.25853
1.2461
1.23546
1.22307
1.20899
1.19983
1.20289
1.23249
1.33252
1.51468
1.66261
1.79963
1.88456
1.92073
1.9159
1.89759
1.8685
1.84346
1.82802
1.81963
1.80687
1.79017
1.77585
1.76374
1.74944
1.73695
1.72554
1.71561
1.70713
1.6987
1.68879
1.6771
1.66474
1.65234
1.63844
1.62741
1.61992
1.61152
1.60044
1.58815
1.57913
1.57441
1.57026
1.56537
1.55856
1.55044
1.54184
1.5327
1.52135
1.50705
1.49351
1.48385
1.47711
1.47116
1.46932
1.48561
1.00012
1.00397
1.06155
1.24147
1.59278
1.81777
1.97251
2.10614
2.16878
2.15525
2.12889
2.10475
2.08693
2.05631
2.00768
1.9558
1.91003
1.87047
1.83262
1.79815
1.77031
1.73762
1.69843
1.65988
1.62678
1.59612
1.56955
1.54333
1.51462
1.49191
1.47635
1.4567
1.43141
1.40357
1.38115
1.36261
1.34484
1.32208
1.29892
1.28719
1.27499
1.26322
1.24972
1.23225
1.21195
1.20092
1.20267
1.22421
1.31798
1.49266
1.68409
1.79691
1.86264
1.91871
1.91962
1.89013
1.85652
1.83899
1.82519
1.82002
1.81328
1.79998
1.78417
1.76599
1.74448
1.73092
1.72638
1.7204
1.71259
1.70461
1.69516
1.68416
1.67152
1.65685
1.64094
1.62613
1.61682
1.60864
1.59724
1.58819
1.58312
1.57766
1.57084
1.56295
1.5544
1.54441
1.53405
1.5254
1.51706
1.5061
1.49462
1.486
1.47961
1.47237
1.46991
1.48412
1.00894
1.07662
1.28571
1.44002
1.55765
1.64381
1.77269
1.95721
2.07977
2.1192
2.12225
2.11199
2.08445
2.04389
2.0017
1.95699
1.91113
1.86851
1.83053
1.79395
1.7556
1.71744
1.68203
1.64917
1.61829
1.59145
1.56789
1.54479
1.52006
1.49117
1.46051
1.43526
1.41378
1.39279
1.37158
1.35244
1.33723
1.31975
1.29672
1.27441
1.26037
1.24969
1.23791
1.22746
1.21656
1.22147
1.26758
1.37138
1.48546
1.52799
1.59874
1.67134
1.74033
1.82964
1.8638
1.86244
1.8604
1.8539
1.83988
1.82637
1.81237
1.79914
1.78367
1.76529
1.74646
1.73122
1.72008
1.71315
1.70648
1.69903
1.68977
1.67901
1.66693
1.65544
1.64435
1.62964
1.61549
1.60545
1.59985
1.59604
1.59106
1.5843
1.57587
1.56573
1.55532
1.54474
1.53322
1.52196
1.51338
1.5075
1.50155
1.49376
1.48864
1.48442
1.4876
1.52208
1.12197
1.33043
1.49025
1.5365
1.55755
1.56647
1.58961
1.69002
1.88645
2.05854
2.13142
2.12283
2.07704
2.02808
1.99084
1.95221
1.90819
1.86256
1.81972
1.78089
1.74454
1.71195
1.68304
1.6548
1.62485
1.59288
1.56065
1.53184
1.50701
1.48214
1.45415
1.42672
1.40653
1.39176
1.37494
1.35672
1.33881
1.31846
1.29526
1.27197
1.25644
1.24642
1.23917
1.23425
1.25259
1.33886
1.4572
1.53919
1.57495
1.57251
1.57234
1.57641
1.60129
1.67424
1.77251
1.83888
1.86421
1.86339
1.84889
1.82676
1.80856
1.79906
1.78689
1.76992
1.75257
1.7379
1.72506
1.7155
1.70996
1.70235
1.69226
1.68168
1.6709
1.65807
1.64324
1.62832
1.6152
1.60474
1.59654
1.59142
1.58612
1.57974
1.57222
1.5637
1.55463
1.54538
1.53413
1.52054
1.50901
1.50181
1.49758
1.49788
1.49972
1.50974
1.53164
1.58184
1.36473
1.51708
1.56769
1.56792
1.56442
1.56289
1.56416
1.5708
1.61671
1.77716
1.98167
2.05252
2.04464
2.02482
1.99026
1.94695
1.90018
1.85404
1.81192
1.77491
1.74298
1.71366
1.68348
1.65152
1.6191
1.5858
1.55266
1.52274
1.49654
1.47316
1.45117
1.43036
1.41057
1.39066
1.36972
1.34878
1.32876
1.31495
1.3026
1.28364
1.26618
1.2553
1.25825
1.30129
1.41302
1.537
1.59822
1.61409
1.61243
1.59966
1.58033
1.56567
1.56416
1.57336
1.62321
1.71316
1.79516
1.82951
1.82996
1.8242
1.81563
1.80533
1.79143
1.77593
1.76154
1.74911
1.73486
1.7227
1.71463
1.70566
1.69455
1.68305
1.67198
1.66023
1.64639
1.63086
1.61803
1.60822
1.60037
1.59425
1.58836
1.58174
1.57442
1.56632
1.55703
1.54546
1.53134
1.51721
1.50854
1.50597
1.5048
1.51224
1.53772
1.57777
1.61484
1.63427
1.51549
1.56612
1.58194
1.58085
1.57556
1.57186
1.57167
1.56977
1.55814
1.56202
1.65069
1.83555
1.97601
2.00586
1.9863
1.93716
1.88844
1.84611
1.80826
1.77306
1.7401
1.708
1.67584
1.64349
1.61172
1.5802
1.54896
1.5189
1.4919
1.46741
1.44338
1.42079
1.40062
1.38203
1.36652
1.35273
1.33489
1.31505
1.29456
1.28394
1.27629
1.29158
1.38052
1.50899
1.61013
1.65004
1.64908
1.63882
1.62246
1.60816
1.59361
1.57894
1.56946
1.56572
1.56819
1.58954
1.64652
1.72521
1.79808
1.83
1.82747
1.81272
1.79522
1.78249
1.77335
1.76301
1.749
1.73125
1.71548
1.70538
1.69537
1.68482
1.675
1.66562
1.65468
1.64028
1.62348
1.6103
1.60292
1.59799
1.59255
1.58615
1.57894
1.57039
1.55937
1.54606
1.53108
1.51883
1.51598
1.51818
1.53412
1.57172
1.61939
1.65833
1.66786
1.66413
1.56674
1.56562
1.56987
1.57392
1.57639
1.57707
1.5735
1.56422
1.54388
1.52032
1.49111
1.52527
1.67862
1.85019
1.91331
1.90719
1.87641
1.8381
1.8
1.76379
1.72931
1.69611
1.66398
1.63275
1.60266
1.57243
1.54169
1.51083
1.48164
1.45509
1.43603
1.42176
1.40718
1.39069
1.37117
1.34939
1.32847
1.3129
1.29812
1.30084
1.3531
1.48003
1.61459
1.6718
1.68878
1.68325
1.66862
1.65368
1.63545
1.62093
1.60971
1.5986
1.58802
1.57772
1.56974
1.56045
1.56221
1.5864
1.65697
1.74203
1.79839
1.80079
1.8007
1.79814
1.79078
1.77776
1.75994
1.73888
1.71764
1.70634
1.69728
1.68841
1.68067
1.67293
1.66388
1.65098
1.63236
1.61582
1.60878
1.60344
1.59719
1.58998
1.58186
1.57257
1.56111
1.54762
1.5337
1.52897
1.53371
1.55846
1.60716
1.65602
1.69037
1.69726
1.69541
1.68458
1.58241
1.58057
1.57938
1.57917
1.57974
1.57803
1.56956
1.55102
1.52224
1.48578
1.4516
1.41025
1.41875
1.51547
1.69339
1.84002
1.84833
1.82556
1.78585
1.74632
1.71101
1.67919
1.6482
1.61741
1.5875
1.55805
1.52933
1.50349
1.48177
1.46107
1.442
1.42249
1.40571
1.38937
1.37092
1.34749
1.33181
1.31968
1.3385
1.43774
1.58794
1.6991
1.73123
1.73015
1.7209
1.70366
1.68289
1.6621
1.6449
1.6319
1.62176
1.61199
1.60226
1.5916
1.57936
1.56385
1.55206
1.54169
1.55078
1.59838
1.68999
1.76531
1.80094
1.80349
1.79763
1.78114
1.76307
1.7446
1.72411
1.71065
1.70099
1.69311
1.6862
1.67884
1.67074
1.65989
1.64285
1.62374
1.61243
1.60537
1.59832
1.5912
1.58348
1.57438
1.56466
1.55324
1.54831
1.55688
1.58617
1.63835
1.68655
1.71061
1.71655
1.71376
1.70696
1.69358
1.58588
1.58368
1.58118
1.57932
1.57734
1.57002
1.55217
1.52159
1.48106
1.44259
1.41194
1.36896
1.32884
1.31684
1.3715
1.55388
1.72329
1.7689
1.75694
1.72434
1.6896
1.65838
1.62821
1.59946
1.57352
1.54934
1.52498
1.50153
1.48024
1.46083
1.44219
1.42439
1.40931
1.39303
1.37677
1.35532
1.35443
1.39863
1.53977
1.68703
1.76478
1.78231
1.77522
1.75905
1.73985
1.719
1.69589
1.67292
1.65481
1.64139
1.63094
1.62101
1.6112
1.60077
1.58922
1.57367
1.55371
1.5348
1.52667
1.53009
1.56127
1.63911
1.72342
1.76613
1.77482
1.77186
1.76273
1.74807
1.73042
1.71623
1.70469
1.6956
1.68876
1.68219
1.67504
1.66559
1.65028
1.62926
1.61335
1.60469
1.59757
1.59141
1.5849
1.57943
1.57343
1.57631
1.59326
1.62859
1.67594
1.71198
1.7224
1.72837
1.72474
1.71951
1.7139
1.70138
1.58121
1.58117
1.58082
1.57737
1.57019
1.55224
1.52092
1.47365
1.43611
1.40216
1.35691
1.30441
1.27825
1.26155
1.23255
1.26235
1.41167
1.59176
1.69397
1.69267
1.67305
1.64319
1.61245
1.58338
1.55966
1.5394
1.51858
1.49737
1.47901
1.46468
1.44954
1.43661
1.42007
1.40679
1.38927
1.40552
1.51009
1.6624
1.77706
1.80996
1.81183
1.79956
1.78129
1.76306
1.74517
1.72611
1.7059
1.68477
1.6656
1.64932
1.63637
1.62672
1.61863
1.60935
1.5979
1.58121
1.55819
1.53578
1.52203
1.51646
1.51642
1.52994
1.583
1.65552
1.72301
1.75735
1.75548
1.74597
1.73252
1.71983
1.70746
1.69666
1.68946
1.68272
1.67517
1.66632
1.65321
1.63294
1.61322
1.60286
1.5968
1.59164
1.58853
1.58953
1.60572
1.64343
1.6868
1.72209
1.74556
1.7412
1.73046
1.72584
1.72325
1.72426
1.72145
1.71071
1.58177
1.58146
1.57865
1.57264
1.552
1.51611
1.47084
1.42516
1.38346
1.33436
1.28066
1.25724
1.24015
1.20399
1.157
1.13803
1.1589
1.27266
1.47388
1.61414
1.6413
1.62568
1.59943
1.57218
1.55173
1.53782
1.52208
1.50284
1.48661
1.4771
1.46392
1.4511
1.43021
1.43222
1.48649
1.64058
1.78282
1.85159
1.86094
1.84951
1.82974
1.80794
1.78704
1.76736
1.74853
1.72966
1.7113
1.69361
1.67639
1.65881
1.64196
1.63081
1.62345
1.61587
1.60405
1.58609
1.56037
1.53834
1.52416
1.51464
1.50801
1.50487
1.50886
1.53516
1.59088
1.6698
1.7083
1.72326
1.72589
1.72075
1.71129
1.69923
1.68963
1.68195
1.67365
1.66383
1.65057
1.63212
1.61267
1.60176
1.59751
1.59607
1.60155
1.63007
1.68854
1.74259
1.76938
1.77732
1.77099
1.7485
1.72772
1.72308
1.72147
1.72224
1.71822
1.70712
1.57763
1.57399
1.56679
1.54567
1.50732
1.46461
1.41324
1.35408
1.30774
1.27022
1.234
1.20501
1.17323
1.11736
1.10206
1.10143
1.09489
1.10372
1.18745
1.38678
1.55162
1.59941
1.59252
1.57403
1.55548
1.54314
1.53201
1.5167
1.50294
1.49174
1.47974
1.46552
1.48683
1.59944
1.76563
1.88224
1.89432
1.8908
1.87399
1.85343
1.83366
1.81282
1.79035
1.76714
1.74618
1.72795
1.71225
1.69751
1.68304
1.66814
1.65269
1.63813
1.62482
1.61601
1.60744
1.59097
1.56481
1.54066
1.52621
1.51702
1.50956
1.50078
1.49622
1.49542
1.50249
1.54029
1.60366
1.66273
1.70281
1.71441
1.71085
1.70101
1.68914
1.67869
1.66923
1.65933
1.64777
1.63221
1.61277
1.60346
1.60381
1.61648
1.65782
1.71922
1.77711
1.79529
1.79424
1.78782
1.76964
1.74231
1.72727
1.72325
1.72159
1.7193
1.71524
1.70678
1.56523
1.55775
1.53783
1.49801
1.45327
1.40093
1.32508
1.27747
1.24995
1.20915
1.16468
1.13775
1.1033
1.06818
1.06665
1.06381
1.05328
1.04478
1.052
1.12794
1.32312
1.52011
1.56869
1.57507
1.57262
1.56249
1.55129
1.53759
1.52614
1.5109
1.51289
1.56228
1.72489
1.87165
1.94389
1.94587
1.92836
1.8993
1.8728
1.85157
1.83337
1.813
1.78945
1.76536
1.745
1.72794
1.71287
1.69824
1.68241
1.66718
1.65637
1.64814
1.63521
1.61844
1.59877
1.57911
1.5637
1.54953
1.53434
1.52004
1.51005
1.50391
1.49844
1.48825
1.47348
1.474
1.49492
1.54837
1.61997
1.67529
1.68356
1.68536
1.68191
1.67339
1.66351
1.65297
1.64173
1.63041
1.61634
1.61843
1.63819
1.68769
1.74371
1.7918
1.8105
1.81063
1.80411
1.78722
1.7645
1.7434
1.73462
1.72976
1.72381
1.71747
1.71203
1.70082
1.55052
1.53343
1.49192
1.43821
1.38512
1.30636
1.24287
1.21655
1.17739
1.1223
1.1068
1.09385
1.06103
1.04947
1.05339
1.05245
1.04607
1.04133
1.04103
1.04585
1.09854
1.29657
1.49634
1.56299
1.58331
1.5831
1.57357
1.56155
1.54812
1.56358
1.65767
1.83293
1.9659
1.97338
1.96777
1.94583
1.92262
1.89984
1.87746
1.85459
1.83188
1.80967
1.78754
1.76523
1.74513
1.72876
1.71604
1.70476
1.69232
1.67839
1.66324
1.64503
1.62705
1.60958
1.59218
1.57564
1.56294
1.55299
1.54262
1.53239
1.52307
1.51152
1.49466
1.47725
1.46377
1.45842
1.45766
1.46657
1.50735
1.57553
1.62946
1.65954
1.66757
1.66529
1.6583
1.6493
1.64212
1.64082
1.65321
1.68457
1.72979
1.77789
1.80081
1.81006
1.80961
1.80137
1.78933
1.77451
1.76051
1.74911
1.74231
1.73528
1.72789
1.71983
1.70967
1.69166
1.53242
1.49212
1.42611
1.36146
1.28581
1.20514
1.16725
1.13463
1.08544
1.05739
1.05412
1.04274
1.03729
1.0395
1.04678
1.05126
1.05071
1.05243
1.05856
1.06494
1.07207
1.1137
1.29659
1.48001
1.57424
1.58886
1.58809
1.5922
1.62979
1.76465
1.92793
2.01045
2.02687
2.00967
1.97063
1.93779
1.91566
1.89573
1.87446
1.85109
1.82734
1.80438
1.78353
1.7657
1.75009
1.73614
1.72304
1.70837
1.69113
1.67244
1.6544
1.63792
1.62204
1.60555
1.58965
1.577
1.56893
1.56089
1.54999
1.5347
1.51737
1.50307
1.48884
1.47394
1.46199
1.45541
1.45139
1.45004
1.45556
1.47597
1.52272
1.58574
1.62173
1.6378
1.64261
1.64803
1.66226
1.68941
1.74005
1.7849
1.81423
1.82899
1.8267
1.81281
1.79601
1.78164
1.77267
1.76591
1.75719
1.75078
1.74609
1.73791
1.72403
1.71169
1.70122
1.68588
1.49676
1.41204
1.33247
1.25085
1.15059
1.12095
1.11373
1.08476
1.05948
1.05607
1.05069
1.05142
1.05474
1.06201
1.07116
1.07576
1.07747
1.07999
1.08485
1.09102
1.09176
1.09425
1.12395
1.27366
1.47184
1.55782
1.63467
1.72678
1.86741
1.97046
2.03512
2.0325
2.01117
1.98603
1.9635
1.94238
1.92026
1.89833
1.87752
1.85546
1.83214
1.81066
1.79264
1.7776
1.76415
1.75089
1.7362
1.71872
1.69862
1.67683
1.65408
1.63367
1.61967
1.60941
1.59999
1.59327
1.58645
1.57756
1.56498
1.54658
1.52138
1.49639
1.48617
1.47973
1.47253
1.46577
1.46036
1.45494
1.44834
1.44276
1.45134
1.48192
1.54159
1.58783
1.62286
1.67059
1.72223
1.76477
1.81311
1.83221
1.83851
1.83587
1.82295
1.80409
1.78425
1.77381
1.76823
1.76658
1.76502
1.76014
1.75448
1.74492
1.72668
1.70281
1.69341
1.68562
1.3988
1.2367
1.11621
1.00002
0.962675
0.983556
1.0252
1.02557
1.02911
1.04781
1.0651
1.0784
1.09347
1.11061
1.11244
1.11098
1.10716
1.10742
1.10994
1.11389
1.11452
1.11246
1.11017
1.12913
1.24816
1.51277
1.75916
1.97841
2.13679
2.18413
2.13755
2.05716
1.99974
1.97225
1.95489
1.93762
1.9166
1.89424
1.87173
1.84809
1.82387
1.80194
1.78444
1.76949
1.75564
1.74221
1.72794
1.71123
1.69156