/*--------------------------------*- C++ -*----------------------------------*\
  =========                 |
  \\      /  F ield         | OpenFOAM: The Open Source CFD Toolbox
   \\    /   O peration     | Website:  https://openfoam.org
    \\  /    A nd           | Version:  7
     \\/     M anipulation  |
\*---------------------------------------------------------------------------*/
FoamFile
{
    version     2.0;
    format      ascii;
    class       volVectorField;
    location    "3.2";
    object      U;
}
// * * * * * * * * * * * * * * * * * * * * * * * * * * * * * * * * * * * * * //

dimensions      [0 1 -1 0 0 0 0];

internalField   nonuniform List<vector> 
4608
(
(3 6.73286e-17 0)
(3 3.50985e-16 0)
(3 3.48704e-16 0)
(3 2.50504e-18 0)
(3 -9.64459e-16 0)
(3 -1.03499e-15 0)
(3 -9.84039e-16 0)
(3 -6.49274e-16 0)
(3 -2.76971e-16 0)
(3 6.38666e-17 0)
(3 4.69451e-16 0)
(3 5.36198e-16 0)
(3 2.9022e-16 0)
(3 2.18715e-16 0)
(3 2.36012e-16 0)
(3 3.35765e-16 0)
(3 3.65495e-16 0)
(3 1.11617e-15 0)
(3 2.195e-15 0)
(3 3.05523e-15 0)
(3 2.61434e-15 0)
(3 1.65813e-15 0)
(3 1.37751e-15 0)
(3 2.02122e-15 0)
(3 1.18952e-16 0)
(3 3.02748e-16 0)
(3 -4.76746e-17 0)
(3 -4.74663e-16 0)
(3 -1.24582e-15 0)
(3 -1.29086e-15 0)
(3 -8.24561e-16 0)
(3 -8.6641e-16 0)
(3 -1.65852e-17 0)
(3 2.67954e-16 0)
(3 4.22797e-16 0)
(3 4.79449e-16 0)
(3 1.69624e-16 0)
(3 9.64709e-18 0)
(3 -3.81382e-16 0)
(3 1.1606e-16 0)
(3 2.23943e-16 0)
(3 1.57045e-15 0)
(3 3.58222e-15 0)
(3 4.04751e-15 0)
(3 3.7577e-15 0)
(3 2.44389e-15 0)
(3 1.90352e-15 0)
(3 4.59736e-17 0)
(3 -4.85312e-18 0)
(3 -1.0836e-16 0)
(3 -2.81498e-16 0)
(3 -1.25641e-17 0)
(3 1.19328e-16 0)
(3 5.5451e-16 0)
(3 7.59182e-16 0)
(3 8.37668e-16 0)
(3 8.7746e-16 0)
(3 1.89798e-16 0)
(3 -6.44706e-16 0)
(3 -1.07274e-15 0)
(3 -9.92398e-16 0)
(3 -3.30682e-16 0)
(3 -1.39613e-16 0)
(3 1.1919e-15 0)
(3 1.55032e-15 0)
(3 1.42265e-15 0)
(3 1.30882e-15 0)
(3 1.26561e-15 0)
(3 1.93941e-15 0)
(3 2.17621e-15 0)
(3 2.02191e-15 0)
(3 -1.04962e-15 0)
(3 4.05446e-17 0)
(3 9.76572e-18 0)
(3 2.6812e-16 0)
(3 1.18417e-16 0)
(3 7.94553e-16 0)
(3 1.14163e-15 0)
(3 8.1998e-16 0)
(3 4.92334e-16 0)
(3 7.81038e-17 0)
(3 -5.0469e-16 0)
(3 -1.30538e-15 0)
(3 -1.9813e-15 0)
(3 -2.06049e-15 0)
(3 -1.72078e-15 0)
(3 -1.29559e-15 0)
(3 -1.88195e-16 0)
(3 1.51137e-16 0)
(3 1.14709e-15 0)
(3 1.05064e-15 0)
(3 1.01094e-15 0)
(3 1.34988e-15 0)
(3 1.49751e-15 0)
(3 5.16773e-17 0)
(3 -7.29572e-16 0)
(3 3.79874e-16 0)
(3 4.25008e-16 0)
(3 7.05599e-16 0)
(3 1.00167e-15 0)
(3 1.30693e-15 0)
(3 9.80312e-16 0)
(3 5.84758e-16 0)
(3 6.39214e-16 0)
(3 -8.78211e-17 0)
(3 -5.10785e-16 0)
(3 -8.44301e-16 0)
(3 -9.94501e-16 0)
(3 -1.38029e-15 0)
(3 -1.58535e-15 0)
(3 -1.46136e-15 0)
(3 1.06758e-16 0)
(3 1.06497e-15 0)
(3 1.40447e-15 0)
(3 1.34228e-15 0)
(3 1.72793e-15 0)
(3 2.02274e-15 0)
(3 1.01036e-15 0)
(3 -8.64561e-16 0)
(3 -1.21073e-15 0)
(3 -2.5049e-17 0)
(3 -7.71003e-17 0)
(3 1.3935e-16 0)
(3 7.08024e-16 0)
(3 7.80021e-16 0)
(3 7.45801e-16 0)
(3 9.74202e-16 0)
(3 1.10133e-15 0)
(3 9.93617e-16 0)
(3 1.11225e-15 0)
(3 1.50818e-15 0)
(3 8.69309e-16 0)
(3 -6.63209e-16 0)
(3 -7.06168e-16 0)
(3 -7.08889e-16 0)
(3 2.44002e-16 0)
(3 9.22787e-16 0)
(3 1.20109e-15 0)
(3 1.54724e-15 0)
(3 1.08574e-15 0)
(3 8.16295e-16 0)
(3 6.67846e-16 0)
(3 4.41792e-16 0)
(3 5.74292e-16 0)
(3 -2.84162e-16 0)
(3 -3.08277e-16 0)
(3 -5.29602e-17 0)
(3 2.73011e-17 0)
(3 1.88555e-16 0)
(3 9.22685e-16 0)
(3 9.43629e-16 0)
(3 6.02629e-16 0)
(3 3.60517e-16 0)
(3 8.61765e-16 0)
(3 1.3306e-15 0)
(3 1.32648e-15 0)
(3 9.58873e-16 0)
(3 6.3974e-16 0)
(3 5.04734e-16 0)
(3 4.06016e-17 0)
(3 -4.33874e-16 0)
(3 1.8066e-16 0)
(3 1.50277e-15 0)
(3 1.66508e-15 0)
(3 1.12784e-15 0)
(3 1.35592e-15 0)
(3 1.30523e-15 0)
(3 9.68216e-16 0)
(3 -1.59542e-16 0)
(3 2.6273e-17 0)
(3 2.67216e-16 0)
(3 3.69719e-16 0)
(3 2.39943e-16 0)
(3 2.24546e-16 0)
(3 -3.51144e-16 0)
(3 -7.56594e-16 0)
(3 -3.50861e-16 0)
(3 -7.92897e-16 0)
(3 -4.14596e-16 0)
(3 3.04556e-16 0)
(3 9.58821e-16 0)
(3 1.36544e-15 0)
(3 1.72794e-15 0)
(3 1.24493e-15 0)
(3 6.20508e-16 0)
(3 8.74359e-16 0)
(3 1.38579e-15 0)
(3 2.41846e-15 0)
(3 2.40181e-15 0)
(3 1.67056e-15 0)
(3 1.61975e-15 0)
(3 2.84849e-16 0)
(3 -1.65091e-16 0)
(3 -5.80009e-17 0)
(3 2.49461e-17 0)
(3 -1.12636e-16 0)
(3 -5.78951e-16 0)
(3 -1.45605e-15 0)
(3 -1.20967e-15 0)
(3 -7.58362e-16 0)
(3 -8.46285e-16 0)
(3 -1.60693e-15 0)
(3 -9.90516e-16 0)
(3 -1.24839e-16 0)
(3 3.77254e-16 0)
(3 9.23373e-16 0)
(3 1.29969e-15 0)
(3 1.56983e-15 0)
(3 2.41352e-15 0)
(3 2.77307e-15 0)
(3 2.15329e-15 0)
(3 2.22879e-15 0)
(3 1.54017e-15 0)
(3 1.25566e-16 0)
(3 2.63323e-18 0)
(3 3.34155e-16 0)
(3 2.14458e-16 0)
(3 4.11879e-16 0)
(3 3.06801e-16 0)
(3 -1.69631e-17 0)
(3 -1.72494e-16 0)
(3 -2.35574e-16 0)
(3 5.07249e-18 0)
(3 -2.61112e-16 0)
(3 -1.13732e-15 0)
(3 -9.04011e-16 0)
(3 -2.31094e-17 0)
(3 1.18498e-17 0)
(3 -2.49625e-16 0)
(3 -1.14496e-16 0)
(3 -2.98834e-16 0)
(3 7.99493e-16 0)
(3 1.24524e-15 0)
(3 1.43922e-15 0)
(3 1.31541e-15 0)
(3 8.22363e-16 0)
(3 3.3355e-16 0)
(3 4.46992e-17 0)
(3 1.5702e-16 0)
(3 1.45333e-15 0)
(3 1.45354e-17 0)
(3 1.49527e-16 0)
(3 4.16967e-16 0)
(3 5.79566e-16 0)
(3 7.40183e-16 0)
(3 5.12891e-16 0)
(3 -5.75e-17 0)
(3 -6.61552e-16 0)
(3 -4.93734e-16 0)
(3 1.44174e-17 0)
(3 -2.31566e-16 0)
(3 -4.91317e-16 0)
(3 -4.93909e-16 0)
(3 -1.60723e-16 0)
(3 -1.70187e-16 0)
(3 2.86172e-16 0)
(3 3.78655e-16 0)
(3 4.32279e-16 0)
(3 4.10037e-16 0)
(3 -4.44565e-16 0)
(3 -3.55056e-16 0)
(3 8.6771e-16 0)
(3 1.38664e-15 0)
(3 1.43589e-15 0)
(3 -1.05596e-16 0)
(3 -1.48657e-16 0)
(3 -3.90805e-17 0)
(3 4.12546e-16 0)
(3 4.97497e-16 0)
(3 3.26901e-16 0)
(3 7.30277e-16 0)
(3 4.23306e-16 0)
(3 1.00221e-15 0)
(3 1.79139e-15 0)
(3 1.1787e-15 0)
(3 1.28191e-15 0)
(3 1.67684e-15 0)
(3 1.64272e-15 0)
(3 1.4766e-15 0)
(3 1.5262e-15 0)
(3 7.31503e-16 0)
(3 -5.03095e-16 0)
(3 -8.02879e-16 0)
(3 -1.03061e-15 0)
(3 -8.38873e-16 0)
(3 -6.53873e-16 0)
(3 -2.33782e-16 0)
(3 -1.29361e-16 0)
(3 -4.51321e-17 0)
(3 -2.66578e-16 0)
(3 -2.29752e-16 0)
(3 -2.31222e-16 0)
(3 -3.16101e-16 0)
(3 1.68794e-16 0)
(3 1.07158e-15 0)
(3 1.45527e-15 0)
(3 1.56147e-15 0)
(3 1.78065e-15 0)
(3 1.87687e-15 0)
(3 2.54452e-15 0)
(3 3.2655e-15 0)
(3 2.99225e-15 0)
(3 2.2933e-15 0)
(3 7.89396e-16 0)
(3 -9.70263e-16 0)
(3 -2.06595e-15 0)
(3 -2.84958e-15 0)
(3 -3.19585e-15 0)
(3 -3.19681e-15 0)
(3 -3.1719e-15 0)
(3 -1.84608e-15 0)
(3 -8.02337e-16 0)
(3 1.1094e-16 0)
(3 4.32282e-17 0)
(3 -2.83629e-17 0)
(3 -4.02952e-16 0)
(3 -6.66691e-16 0)
(3 -8.25003e-16 0)
(3 -1.13573e-15 0)
(3 1.78783e-16 0)
(3 6.27079e-16 0)
(3 6.22856e-16 0)
(3 6.41566e-16 0)
(3 5.95148e-16 0)
(3 6.65963e-16 0)
(3 3.89208e-16 0)
(3 -6.66056e-17 0)
(3 -1.22938e-15 0)
(3 -2.02266e-15 0)
(3 -2.25097e-15 0)
(3 -2.45855e-15 0)
(3 -2.37647e-15 0)
(3 -2.48231e-15 0)
(3 -2.39798e-15 0)
(3 -1.45578e-15 0)
(3 -9.48231e-16 0)
(3 1.15451e-17 0)
(3 9.05853e-17 0)
(3 -1.86004e-16 0)
(3 -1.59601e-16 0)
(3 -2.97871e-16 0)
(3 -6.87905e-16 0)
(3 -5.97552e-16 0)
(3 -3.05285e-16 0)
(3 -3.32939e-16 0)
(3 -7.47892e-16 0)
(3 -1.41546e-15 0)
(3 -2.8136e-15 0)
(3 -3.27017e-15 0)
(3 -3.43515e-15 0)
(3 -3.18419e-15 0)
(3 -2.15048e-15 0)
(3 -1.88777e-15 0)
(3 -1.52806e-15 0)
(3 -9.79483e-16 0)
(3 -3.53938e-16 0)
(3 -3.60381e-16 0)
(3 -4.05532e-16 0)
(3 -3.08168e-16 0)
(3 -1.70426e-16 0)
(3 -5.64076e-17 0)
(3 -2.85668e-16 0)
(3 -3.77228e-16 0)
(3 -3.92035e-16 0)
(3 -5.46985e-16 0)
(3 -5.28592e-16 0)
(3 -5.50721e-16 0)
(3 -5.58493e-16 0)
(3 -8.65503e-16 0)
(3 -1.3087e-15 0)
(3 -1.37239e-15 0)
(3 -1.43753e-15 0)
(3 -1.22356e-15 0)
(3 -9.50654e-16 0)
(3 -8.02481e-16 0)
(3 -2.16384e-16 0)
(3 2.90337e-17 0)
(3 4.15585e-16 0)
(3 1.51782e-15 0)
(3 1.58235e-15 0)
(3 1.03505e-15 0)
(3 8.76099e-16 0)
(3 9.01083e-16 0)
(3 9.76488e-16 0)
(3 3.82464e-17 0)
(3 1.98192e-17 0)
(3 -6.09534e-17 0)
(3 -5.99347e-16 0)
(3 -1.17599e-15 0)
(3 -1.07053e-15 0)
(3 -1.12878e-15 0)
(3 -1.16141e-15 0)
(3 -8.84252e-16 0)
(3 -6.6577e-16 0)
(3 -1.90327e-16 0)
(3 4.20853e-17 0)
(3 -3.67882e-16 0)
(3 -3.45235e-16 0)
(3 -1.43474e-16 0)
(3 1.13503e-16 0)
(3 5.42852e-16 0)
(3 5.08925e-16 0)
(3 4.80794e-16 0)
(3 -3.57115e-16 0)
(3 -1.31667e-15 0)
(3 -8.0501e-16 0)
(3 -3.69386e-16 0)
(3 3.92085e-16 0)
(3 -1.38147e-16 0)
(3 2.13503e-17 0)
(3 -5.96841e-17 0)
(3 -3.08438e-16 0)
(3 -8.91091e-16 0)
(3 -1.08624e-15 0)
(3 -8.39672e-16 0)
(3 -9.33739e-16 0)
(3 -4.02581e-16 0)
(3 9.12877e-17 0)
(3 1.58704e-16 0)
(3 -1.45318e-16 0)
(3 -9.82626e-16 0)
(3 -1.05868e-15 0)
(3 -9.41532e-16 0)
(3 -1.08616e-15 0)
(3 -4.83395e-16 0)
(3 -1.32786e-16 0)
(3 -3.47064e-16 0)
(3 -2.74168e-16 0)
(3 -2.53829e-16 0)
(3 -7.30577e-16 0)
(3 -1.40329e-15 0)
(3 -6.40531e-16 0)
(3 4.66077e-17 0)
(3 -2.2572e-16 0)
(3 -3.54905e-16 0)
(3 8.71377e-18 0)
(3 4.70942e-16 0)
(3 2.73108e-17 0)
(3 -6.80977e-16 0)
(3 -8.02883e-16 0)
(3 -6.65067e-16 0)
(3 -2.32437e-16 0)
(3 1.49519e-16 0)
(3 5.74363e-16 0)
(3 5.01427e-16 0)
(3 -2.82294e-16 0)
(3 -5.48695e-16 0)
(3 -2.15614e-16 0)
(3 7.98214e-17 0)
(3 8.2438e-16 0)
(3 9.12235e-16 0)
(3 7.77109e-16 0)
(3 1.30237e-16 0)
(3 -4.25247e-16 0)
(3 -1.10837e-15 0)
(3 -1.52582e-15 0)
(3 1.06643e-16 0)
(3 -5.89078e-17 0)
(3 2.47378e-16 0)
(3 2.26667e-16 0)
(3 3.70582e-16 0)
(3 7.87502e-17 0)
(3 -4.27625e-16 0)
(3 -9.54316e-16 0)
(3 -1.30647e-15 0)
(3 -1.24098e-15 0)
(3 -1.23422e-15 0)
(3 1.08882e-16 0)
(3 4.74291e-16 0)
(3 -1.21405e-16 0)
(3 -7.56045e-16 0)
(3 -1.24158e-15 0)
(3 -9.74292e-16 0)
(3 -1.13676e-15 0)
(3 -7.36212e-16 0)
(3 -2.29302e-16 0)
(3 -2.0963e-16 0)
(3 -6.58263e-16 0)
(3 -7.67401e-16 0)
(3 -1.19656e-15 0)
(3 5.79017e-18 0)
(3 -1.92679e-17 0)
(3 6.20418e-17 0)
(3 -2.80577e-16 0)
(3 -3.55224e-16 0)
(3 -1.5149e-16 0)
(3 1.60955e-16 0)
(3 -4.28809e-16 0)
(3 -5.29352e-16 0)
(3 3.24029e-17 0)
(3 3.11618e-16 0)
(3 1.52621e-16 0)
(3 -3.81994e-16 0)
(3 -5.95528e-16 0)
(3 -5.45171e-16 0)
(3 -9.05575e-16 0)
(3 -1.25889e-15 0)
(3 -2.41536e-15 0)
(3 -2.33563e-15 0)
(3 -2.09955e-15 0)
(3 -7.67457e-16 0)
(3 -1.43873e-16 0)
(3 6.33839e-16 0)
(3 4.43755e-16 0)
(3 3.13775e-16 0)
(3 2.43051e-16 0)
(3 1.95661e-16 0)
(3 1.18119e-16 0)
(3 2.80779e-16 0)
(3 3.13309e-16 0)
(3 5.82494e-17 0)
(3 -9.98919e-17 0)
(3 6.4691e-16 0)
(3 1.4919e-15 0)
(3 1.27644e-15 0)
(3 4.0745e-16 0)
(3 -3.09436e-16 0)
(3 -1.31861e-16 0)
(3 1.22515e-16 0)
(3 1.40306e-16 0)
(3 -2.49073e-16 0)
(3 -6.39493e-16 0)
(3 -1.21756e-15 0)
(3 -1.53166e-15 0)
(3 -1.26856e-15 0)
(3 5.16644e-16 0)
(3 1.41667e-15 0)
(3 1.35662e-15 0)
(3 -6.77274e-17 0)
(3 2.50348e-16 0)
(3 7.99692e-16 0)
(3 1.56953e-15 0)
(3 1.59353e-15 0)
(3 1.27417e-15 0)
(3 6.45427e-16 0)
(3 3.83315e-16 0)
(3 6.90429e-17 0)
(3 -3.84262e-16 0)
(3 -8.45298e-16 0)
(3 -9.20013e-16 0)
(3 -8.59768e-16 0)
(3 -9.89399e-16 0)
(3 -1.22738e-15 0)
(3 -1.89434e-15 0)
(3 -2.13237e-15 0)
(3 -2.00576e-15 0)
(3 -1.62895e-15 0)
(3 -1.77742e-15 0)
(3 -2.02458e-15 0)
(3 -6.21202e-16 0)
(3 7.58505e-16 0)
(3 1.60206e-15 0)
(3 -2.14832e-16 0)
(3 1.51013e-16 0)
(3 4.3217e-16 0)
(3 7.81149e-16 0)
(3 2.1173e-15 0)
(3 2.81124e-15 0)
(3 2.28989e-15 0)
(3 1.60791e-15 0)
(3 5.94045e-16 0)
(3 -9.5829e-16 0)
(3 -1.32007e-15 0)
(3 -8.71483e-16 0)
(3 -1.05706e-15 0)
(3 -1.22286e-15 0)
(3 -1.33293e-15 0)
(3 -1.43889e-15 0)
(3 -1.55686e-15 0)
(3 -1.39751e-15 0)
(3 -1.21058e-15 0)
(3 -1.17443e-15 0)
(3 -1.13779e-15 0)
(3 -6.00646e-16 0)
(3 -4.78066e-16 0)
(3 -1.10924e-16 0)
(3 1.20924e-16 0)
(3 1.62049e-16 0)
(3 5.75873e-17 0)
(3 -6.31358e-16 0)
(3 -5.63258e-16 0)
(3 -1.08469e-16 0)
(3 6.21275e-16 0)
(3 8.01628e-16 0)
(3 4.89834e-16 0)
(3 -1.30112e-16 0)
(3 -1.03121e-15 0)
(3 -1.36889e-15 0)
(3 -8.0536e-16 0)
(3 3.45191e-16 0)
(3 6.68512e-16 0)
(3 1.5565e-15 0)
(3 2.70249e-15 0)
(3 3.35666e-15 0)
(3 3.33372e-15 0)
(3 3.00418e-15 0)
(3 2.90417e-15 0)
(3 1.25385e-15 0)
(3 -3.38643e-16 0)
(3 -6.76661e-16 0)
(3 -8.1763e-17 0)
(3 -5.67349e-16 0)
(3 -7.51568e-16 0)
(3 -1.3467e-15 0)
(3 -2.23924e-15 0)
(3 -2.59122e-15 0)
(3 -1.82438e-15 0)
(3 -8.02193e-16 0)
(3 -2.06215e-16 0)
(3 3.44089e-16 0)
(3 6.19102e-16 0)
(3 3.83521e-18 0)
(3 3.27107e-16 0)
(3 1.13992e-15 0)
(3 1.77126e-15 0)
(3 1.70542e-15 0)
(3 2.00079e-15 0)
(3 1.56952e-15 0)
(3 1.429e-15 0)
(3 2.32087e-15 0)
(3 2.4197e-15 0)
(3 1.55742e-15 0)
(3 5.6898e-16 0)
(3 -2.10758e-16 0)
(3 1.56527e-16 0)
(3 -5.08729e-16 0)
(3 -1.0895e-15 0)
(3 -1.42724e-15 0)
(3 -1.55685e-15 0)
(3 -1.66313e-15 0)
(3 -1.42452e-15 0)
(3 -1.15157e-15 0)
(3 -5.50253e-16 0)
(3 -3.2072e-16 0)
(3 2.34133e-16 0)
(3 4.77488e-16 0)
(3 7.85939e-16 0)
(3 9.72774e-16 0)
(3 7.58924e-16 0)
(3 -1.06724e-15 0)
(3 -1.19003e-15 0)
(3 -9.98946e-16 0)
(3 -4.52502e-16 0)
(3 3.5793e-16 0)
(3 6.94116e-16 0)
(3 7.04424e-16 0)
(3 8.43077e-16 0)
(3 1.14455e-15 0)
(3 8.68796e-17 0)
(3 4.18504e-17 0)
(3 -9.15715e-17 0)
(3 -3.44715e-16 0)
(3 2.33436e-16 0)
(3 1.3972e-15 0)
(3 1.749e-15 0)
(3 1.18092e-15 0)
(3 8.13577e-16 0)
(3 9.88255e-16 0)
(3 5.43741e-16 0)
(3 4.45834e-16 0)
(3 3.27965e-16 0)
(3 -1.51088e-16 0)
(3 -6.201e-16 0)
(3 -1.43862e-15 0)
(3 -1.39294e-15 0)
(3 -4.97891e-16 0)
(3 1.73938e-16 0)
(3 1.72191e-16 0)
(3 6.79429e-18 0)
(3 3.35552e-16 0)
(3 3.40055e-16 0)
(3 1.17455e-16 0)
(3 -1.87973e-16 0)
(3 -6.79625e-16 0)
(3 -3.04751e-16 0)
(3 4.58235e-17 0)
(3 8.5384e-16 0)
(3 1.10788e-15 0)
(3 1.41848e-15 0)
(3 1.62273e-15 0)
(3 1.43836e-15 0)
(3 1.14143e-15 0)
(3 8.83109e-16 0)
(3 8.47031e-16 0)
(3 9.11259e-16 0)
(3 8.11326e-17 0)
(3 -7.85711e-16 0)
(3 -3.56668e-16 0)
(3 7.84231e-16 0)
(3 1.14432e-15 0)
(3 1.38631e-15 0)
(3 1.23369e-15 0)
(3 7.44028e-16 0)
(3 -9.86739e-17 0)
(3 -7.62601e-16 0)
(3 -1.33029e-15 0)
(3 -1.40724e-16 0)
(3 -2.30534e-16 0)
(3 6.86424e-17 0)
(3 5.86548e-16 0)
(3 8.9374e-16 0)
(3 2.53202e-16 0)
(3 4.15612e-17 0)
(3 1.67346e-16 0)
(3 5.84881e-16 0)
(3 3.97365e-16 0)
(3 5.77185e-16 0)
(3 1.22997e-15 0)
(3 1.26697e-15 0)
(3 6.33813e-16 0)
(3 -2.83875e-16 0)
(3 -3.55288e-16 0)
(3 -1.57843e-16 0)
(3 -3.78013e-16 0)
(3 5.81615e-16 0)
(3 1.16763e-15 0)
(3 1.24456e-15 0)
(3 4.76361e-16 0)
(3 1.50316e-16 0)
(3 -3.3541e-16 0)
(3 4.87864e-17 0)
(3 4.14356e-16 0)
(3 6.91878e-16 0)
(3 1.14819e-15 0)
(3 1.20135e-15 0)
(3 8.93933e-16 0)
(3 2.83878e-16 0)
(3 2.00212e-16 0)
(3 -5.16722e-16 0)
(3 -4.14547e-16 0)
(3 3.55818e-16 0)
(3 9.21951e-16 0)
(3 1.00727e-15 0)
(3 1.19692e-15 0)
(3 5.76977e-16 0)
(3 -7.47752e-16 0)
(3 -6.1473e-16 0)
(3 -4.35399e-16 0)
(3 -3.97355e-16 0)
(3 4.24166e-16 0)
(3 1.77413e-15 0)
(3 2.28014e-15 0)
(3 1.97316e-15 0)
(3 2.07157e-15 0)
(3 -5.29814e-17 0)
(3 -1.76805e-17 0)
(3 1.98319e-18 0)
(3 3.05273e-16 0)
(3 3.39884e-16 0)
(3 1.18216e-16 0)
(3 1.9655e-16 0)
(3 3.16508e-16 0)
(3 -6.6873e-16 0)
(3 -4.97016e-16 0)
(3 -2.99138e-16 0)
(3 -1.41959e-17 0)
(3 6.40088e-16 0)
(3 8.60371e-16 0)
(3 4.83771e-16 0)
(3 4.01187e-16 0)
(3 6.94925e-16 0)
(3 1.00983e-15 0)
(3 1.03345e-15 0)
(3 6.7958e-16 0)
(3 6.1137e-16 0)
(3 1.568e-15 0)
(3 1.47576e-15 0)
(3 1.64678e-15 0)
(2.93187 0.0228166 0)
(2.85455 0.0382079 0)
(2.746 0.178866 0)
(2.68329 0.223481 0)
(2.57016 0.354793 0)
(2.50036 0.44669 0)
(2.42618 0.54159 0)
(2.3479 0.6258 0)
(2.31281 0.725648 0)
(2.26032 0.798111 0)
(2.24945 0.855433 0)
(2.27986 0.886336 0)
(2.32447 0.891003 0)
(2.33943 0.886689 0)
(2.34766 0.877899 0)
(2.34788 0.870244 0)
(2.34606 0.857242 0)
(2.34679 0.849283 0)
(2.34612 0.847288 0)
(2.34053 0.847373 0)
(2.33756 0.847815 0)
(2.3368 0.848674 0)
(2.33927 0.849703 0)
(2.34125 0.849352 0)
(2.9988 0.00123072 0)
(2.99096 0.0104403 0)
(2.95777 0.05198 0)
(2.9045 0.132139 0)
(2.80135 0.276655 0)
(2.68036 0.463701 0)
(2.54008 0.679672 0)
(2.36702 0.910247 0)
(2.23496 1.06211 0)
(2.17652 1.101 0)
(2.13841 1.04878 0)
(2.18205 1.0024 0)
(2.25959 0.945767 0)
(2.29662 0.89829 0)
(2.32549 0.859229 0)
(2.34893 0.835125 0)
(2.35265 0.83465 0)
(2.35955 0.83669 0)
(2.35831 0.838271 0)
(2.35228 0.841517 0)
(2.34736 0.844434 0)
(2.34395 0.846009 0)
(2.34252 0.847878 0)
(2.34254 0.847501 0)
(3 1.65601e-08 0)
(3.00003 -3.41717e-05 0)
(2.9999 0.000131078 0)
(2.9999 0.000139972 0)
(2.99861 0.00185205 0)
(2.99137 0.0128684 0)
(2.96653 0.0514433 0)
(2.89313 0.182064 0)
(2.79139 0.393422 0)
(2.58384 0.709518 0)
(2.43833 0.858343 0)
(2.33992 0.929439 0)
(2.29949 0.916244 0)
(2.29872 0.898972 0)
(2.30858 0.886196 0)
(2.33811 0.872308 0)
(2.35096 0.865208 0)
(2.35628 0.852785 0)
(2.36177 0.843959 0)
(2.36132 0.842537 0)
(2.35739 0.844096 0)
(2.35211 0.84806 0)
(2.34823 0.851246 0)
(2.34549 0.851942 0)
(3 -8.67721e-09 0)
(3 -1.38353e-06 0)
(3 -1.35057e-06 0)
(3 -6.14869e-07 0)
(3 -8.08043e-06 0)
(2.99999 2.18881e-05 0)
(3.00007 -0.000146118 0)
(2.99917 0.00142713 0)
(2.99143 0.0160252 0)
(2.8944 0.163982 0)
(2.7229 0.446729 0)
(2.50232 0.727006 0)
(2.30801 0.936152 0)
(2.27246 0.951986 0)
(2.28551 0.935682 0)
(2.30375 0.916792 0)
(2.32194 0.897256 0)
(2.34327 0.871513 0)
(2.35989 0.848301 0)
(2.36443 0.841933 0)
(2.36223 0.842938 0)
(2.3595 0.843808 0)
(2.35403 0.847084 0)
(2.34955 0.853903 0)
(3 -9.28436e-11 0)
(3 2.8704e-09 0)
(3 -3.91821e-08 0)
(3 -5.61672e-08 0)
(3 -4.81979e-07 0)
(3 -7.14508e-07 0)
(3 -5.98183e-06 0)
(3 -5.12654e-06 0)
(3.00002 -5.1535e-05 0)
(2.9993 0.000672451 0)
(2.98346 0.0245255 0)
(2.89695 0.14147 0)
(2.58857 0.527833 0)
(2.44045 0.73014 0)
(2.37225 0.838798 0)
(2.303 0.890641 0)
(2.30104 0.89316 0)
(2.32173 0.878536 0)
(2.34131 0.859695 0)
(2.3536 0.857774 0)
(2.35892 0.844892 0)
(2.35908 0.839593 0)
(2.35846 0.838974 0)
(2.35072 0.845557 0)
(3 8.06129e-13 0)
(3 1.177e-10 0)
(3 1.80196e-10 0)
(3 -3.45324e-10 0)
(3 2.48225e-10 0)
(3 -4.15456e-08 0)
(3 -9.31378e-08 0)
(3 -3.54044e-07 0)
(3 -6.29236e-06 0)
(3 -6.09116e-06 0)
(3.00002 -5.0861e-05 0)
(2.9989 0.00149279 0)
(2.96413 0.0448637 0)
(2.85765 0.193553 0)
(2.53306 0.597599 0)
(2.33462 0.825777 0)
(2.31696 0.848669 0)
(2.31207 0.870469 0)
(2.31631 0.873491 0)
(2.3306 0.86465 0)
(2.33995 0.851715 0)
(2.3473 0.837375 0)
(2.35169 0.833079 0)
(2.35107 0.83588 0)
(3 2.25918e-13 0)
(3 1.50174e-13 0)
(3 8.7553e-12 0)
(3 6.55481e-12 0)
(3 1.08017e-11 0)
(3 -4.09392e-10 0)
(3 -2.70003e-10 0)
(3 -3.35938e-10 0)
(3 -1.70108e-08 0)
(3 -3.63317e-07 0)
(3 -4.63279e-06 0)
(3.00001 -1.44977e-05 0)
(2.99997 5.46174e-05 0)
(2.99714 0.00429202 0)
(2.9277 0.0895317 0)
(2.76163 0.309997 0)
(2.48306 0.650038 0)
(2.2867 0.897066 0)
(2.2817 0.870753 0)
(2.30929 0.857958 0)
(2.3134 0.856645 0)
(2.32357 0.850382 0)
(2.33493 0.840893 0)
(2.34055 0.839278 0)
(3 3.51073e-15 0)
(3 1.91129e-15 0)
(3 -3.07483e-15 0)
(3 5.84137e-13 0)
(3 2.12204e-12 0)
(3 4.82819e-12 0)
(3 6.88726e-12 0)
(3 6.49426e-12 0)
(3 1.57598e-10 0)
(3 -5.05111e-10 0)
(3 -2.81401e-08 0)
(3 -1.48808e-06 0)
(3 -1.26099e-06 0)
(3.00001 -1.90857e-05 0)
(2.99941 0.000885855 0)
(2.98892 0.0178319 0)
(2.86732 0.17027 0)
(2.602 0.509472 0)
(2.47329 0.683887 0)
(2.32606 0.854 0)
(2.28852 0.874962 0)
(2.29643 0.864689 0)
(2.3147 0.849579 0)
(2.32299 0.840992 0)
(3 9.0752e-16 0)
(3 4.48199e-16 0)
(3 -1.4204e-15 0)
(3 -8.40784e-16 0)
(3 5.77908e-14 0)
(3 5.85518e-13 0)
(3 1.99184e-12 0)
(3 2.6228e-12 0)
(3 1.98281e-11 0)
(3 1.94568e-11 0)
(3 2.4089e-10 0)
(3 -7.82874e-09 0)
(3 -1.03843e-07 0)
(3 -3.30873e-06 0)
(3 -2.32294e-06 0)
(3 -1.92219e-05 0)
(2.9966 0.00522934 0)
(2.95549 0.0625284 0)
(2.78203 0.313503 0)
(2.46015 0.702074 0)
(2.39494 0.78435 0)
(2.33649 0.828366 0)
(2.32677 0.835611 0)
(2.32472 0.834689 0)
(3 1.77926e-15 0)
(3 1.42773e-15 0)
(3 1.09371e-15 0)
(3 -4.06293e-17 0)
(3 -2.23781e-15 0)
(3 5.53122e-15 0)
(3 6.57756e-14 0)
(3 1.99421e-13 0)
(3 8.333e-13 0)
(3 3.05169e-12 0)
(3 3.92888e-11 0)
(3 6.64323e-11 0)
(3 -5.74383e-10 0)
(3 -5.88237e-08 0)
(3 -4.66534e-07 0)
(3 -1.65148e-06 0)
(3.00001 -1.55505e-05 0)
(2.99965 0.000682031 0)
(2.98488 0.022569 0)
(2.85198 0.200344 0)
(2.67518 0.491434 0)
(2.36426 0.838622 0)
(2.31075 0.865124 0)
(2.32285 0.83518 0)
(3 8.24958e-16 0)
(3 4.15985e-16 0)
(3 6.00514e-16 0)
(3 1.0549e-15 0)
(3 4.6847e-16 0)
(3 1.72098e-17 0)
(3 -8.96637e-17 0)
(3 4.81212e-15 0)
(3 3.45639e-15 0)
(3 3.0949e-14 0)
(3 1.04091e-12 0)
(3 1.27542e-11 0)
(3 9.54479e-12 0)
(3 2.59109e-10 0)
(3 -8.23057e-09 0)
(3 -8.81546e-08 0)
(3 -2.19818e-06 0)
(3 -4.38022e-06 0)
(2.99994 7.9352e-05 0)
(2.99441 0.0101818 0)
(2.94634 0.0929451 0)
(2.67261 0.459792 0)
(2.49681 0.67746 0)
(2.38092 0.796626 0)
(3 -6.24789e-16 0)
(3 -5.9543e-16 0)
(3 -2.49641e-16 0)
(3 1.78341e-16 0)
(3 1.07398e-15 0)
(3 1.21797e-15 0)
(3 1.30228e-15 0)
(3 1.52161e-15 0)
(3 -1.80523e-16 0)
(3 -1.30774e-15 0)
(3 -7.48457e-16 0)
(3 1.05248e-13 0)
(3 1.6386e-12 0)
(3 2.27473e-11 0)
(3 9.31636e-11 0)
(3 -2.22977e-10 0)
(3 -3.17693e-08 0)
(3 -8.07787e-07 0)
(3 -1.61411e-06 0)
(2.99999 5.54237e-06 0)
(2.99823 0.00339502 0)
(2.96092 0.0597031 0)
(2.76937 0.347777 0)
(2.56592 0.632758 0)
(3 -8.22247e-16 0)
(3 -8.95187e-16 0)
(3 -7.77425e-16 0)
(3 -4.70841e-16 0)
(3 -3.98454e-16 0)
(3 -2.38234e-17 0)
(3 4.86369e-16 0)
(3 1.55402e-15 0)
(3 9.85727e-16 0)
(3 4.59765e-16 0)
(3 -1.09646e-15 0)
(3 -1.58328e-15 0)
(3 8.6408e-15 0)
(3 8.82463e-13 0)
(3 1.00503e-11 0)
(3 1.79729e-11 0)
(3 3.77384e-11 0)
(3 -1.71311e-08 0)
(3 -4.53827e-07 0)
(3 -6.94008e-07 0)
(3 1.37855e-06 0)
(2.99933 0.00137506 0)
(2.97676 0.0410096 0)
(2.87342 0.218636 0)
(3 -2.48059e-16 0)
(3 -1.0479e-15 0)
(3 -1.51005e-15 0)
(3 -1.12171e-15 0)
(3 -1.2459e-15 0)
(3 -1.39459e-15 0)
(3 -1.20766e-15 0)
(3 -5.47065e-16 0)
(3 2.14059e-16 0)
(3 6.33269e-16 0)
(3 -3.66795e-16 0)
(3 -1.78236e-15 0)
(3 -1.86587e-15 0)
(3 -1.53208e-16 0)
(3 6.05352e-13 0)
(3 5.52599e-12 0)
(3 1.38657e-11 0)
(3 -3.36059e-11 0)
(3 -3.37292e-08 0)
(3 -1.57321e-07 0)
(3 -2.66237e-07 0)
(3 -2.75334e-06 0)
(2.99964 0.000689923 0)
(2.99219 0.0168361 0)
(3 2.28874e-16 0)
(3 1.29782e-16 0)
(3 1.28133e-16 0)
(3 5.99795e-17 0)
(3 -3.55887e-17 0)
(3 -2.37238e-16 0)
(3 -1.01671e-15 0)
(3 -2.12866e-15 0)
(3 -2.20287e-15 0)
(3 -2.41965e-15 0)
(3 -2.35893e-15 0)
(3 -2.56388e-15 0)
(3 -2.67577e-15 0)
(3 -6.48041e-16 0)
(3 3.27918e-15 0)
(3 4.16706e-13 0)
(3 1.98482e-12 0)
(3 2.55837e-12 0)
(3 -1.01184e-10 0)
(3 -9.9745e-09 0)
(3 -4.79389e-08 0)
(3 -7.25572e-07 0)
(3 -3.0868e-06 0)
(2.99996 6.20937e-05 0)
(3 4.70387e-16 0)
(3 9.02347e-16 0)
(3 2.19602e-15 0)
(3 2.11912e-15 0)
(3 1.06907e-15 0)
(3 2.08606e-16 0)
(3 -4.09361e-16 0)
(3 -1.55308e-15 0)
(3 -2.84781e-15 0)
(3 -3.59183e-15 0)
(3 -3.20285e-15 0)
(3 -1.55345e-15 0)
(3 -2.39948e-16 0)
(3 4.93304e-16 0)
(3 7.40396e-16 0)
(3 5.41979e-15 0)
(3 6.75701e-14 0)
(3 8.89007e-13 0)
(3 2.65639e-13 0)
(3 -1.03408e-11 0)
(3 -2.13468e-09 0)
(3 -1.30094e-07 0)
(3 2.91842e-08 0)
(3 -1.00075e-06 0)
(3 1.0958e-15 0)
(3 1.12392e-15 0)
(3 5.52393e-16 0)
(3 -2.35368e-16 0)
(3 -5.44284e-16 0)
(3 -1.18243e-15 0)
(3 -1.23988e-15 0)
(3 -1.18724e-15 0)
(3 -1.39989e-15 0)
(3 -1.75112e-15 0)
(3 -1.6558e-15 0)
(3 -1.38225e-15 0)
(3 -5.29724e-16 0)
(3 -5.33442e-16 0)
(3 5.00712e-16 0)
(3 -2.85076e-15 0)
(3 -1.02755e-13 0)
(3 -8.46278e-13 0)
(3 -5.61945e-13 0)
(3 2.67252e-10 0)
(3 2.13734e-09 0)
(3 1.03384e-08 0)
(3 7.06709e-07 0)
(3 -4.13598e-08 0)
(3 -3.13709e-16 0)
(3 2.86616e-17 0)
(3 -8.98021e-16 0)
(3 -1.6824e-15 0)
(3 -1.57311e-15 0)
(3 -2.42212e-15 0)
(3 -2.62476e-15 0)
(3 -1.92733e-15 0)
(3 -1.08362e-15 0)
(3 -1.2436e-15 0)
(3 -2.39602e-16 0)
(3 1.35041e-15 0)
(3 1.51971e-15 0)
(3 1.02581e-15 0)
(3 -2.20246e-15 0)
(3 -2.53783e-13 0)
(3 -2.54272e-12 0)
(3 -2.67473e-12 0)
(3 1.23659e-10 0)
(3 1.16312e-08 0)
(3 6.7013e-08 0)
(3 5.95739e-07 0)
(3 -2.05049e-06 0)
(3.00001 6.74975e-05 0)
(3 -1.73008e-15 0)
(3 -1.38746e-15 0)
(3 -1.58143e-15 0)
(3 -1.84362e-15 0)
(3 -2.31042e-15 0)
(3 -1.69759e-15 0)
(3 -1.69218e-15 0)
(3 -1.89498e-15 0)
(3 -1.13394e-15 0)
(3 -2.03244e-16 0)
(3 1.69121e-15 0)
(3 3.59555e-15 0)
(3 3.77877e-15 0)
(3 3.36658e-15 0)
(3 -5.04001e-13 0)
(3 -4.40445e-12 0)
(3 -1.70815e-11 0)
(3 2.05616e-11 0)
(3 2.09328e-08 0)
(3 1.22062e-07 0)
(3 3.5148e-07 0)
(3 3.23101e-06 0)
(2.99968 -0.000656644 0)
(2.99293 -0.015385 0)
(3 -1.67546e-15 0)
(3 -1.53111e-15 0)
(3 -1.25239e-15 0)
(3 -1.41327e-15 0)
(3 -1.5148e-15 0)
(3 -1.21266e-15 0)
(3 -1.1905e-15 0)
(3 -5.07143e-16 0)
(3 1.6585e-16 0)
(3 4.6341e-16 0)
(3 1.23138e-15 0)
(3 2.12575e-16 0)
(3 -8.56299e-15 0)
(3 -7.64362e-13 0)
(3 -1.02765e-11 0)
(3 -1.47488e-11 0)
(3 -6.37847e-11 0)
(3 1.75095e-08 0)
(3 3.95019e-07 0)
(3 5.59721e-07 0)
(3 3.01354e-06 0)
(2.99907 -0.00181733 0)
(2.98097 -0.0392694 0)
(2.87333 -0.2198 0)
(3 -7.24764e-16 0)
(3 -2.2475e-15 0)
(3 -1.66115e-15 0)
(3 -1.85922e-15 0)
(3 -1.69513e-15 0)
(3 -1.19231e-15 0)
(3 -7.15072e-16 0)
(3 -3.68372e-16 0)
(3 -2.39655e-16 0)
(3 -5.61623e-16 0)
(3 -2.3949e-15 0)
(3 -1.14898e-13 0)
(3 -1.61758e-12 0)
(3 -2.09353e-11 0)
(3 -8.70877e-11 0)
(3 2.15507e-10 0)
(3 3.25689e-08 0)
(3 9.1486e-07 0)
(3 1.43753e-06 0)
(2.99999 -8.81132e-06 0)
(2.99841 -0.00295857 0)
(2.95273 -0.0713693 0)
(2.82299 -0.308493 0)
(2.49708 -0.711291 0)
(3 8.00862e-16 0)
(3 -1.13409e-16 0)
(3 -4.60487e-16 0)
(3 -7.34597e-16 0)
(3 -4.56771e-16 0)
(3 5.95785e-16 0)
(3 1.24343e-15 0)
(3 -3.68705e-15 0)
(3 -3.18405e-15 0)
(3 -3.3688e-14 0)
(3 -1.0544e-12 0)
(3 -1.28171e-11 0)
(3 -9.56248e-12 0)
(3 -2.57754e-10 0)
(3 8.52118e-09 0)
(3 8.60199e-08 0)
(3 2.32506e-06 0)
(3 4.47112e-06 0)
(2.99994 -7.60913e-05 0)
(2.99415 -0.0103272 0)
(2.94933 -0.0924066 0)
(2.66617 -0.465089 0)
(2.51349 -0.677084 0)
(2.36967 -0.806991 0)
(3 2.66125e-15 0)
(3 2.59991e-15 0)
(3 2.81921e-15 0)
(3 2.88627e-15 0)
(3 3.64171e-15 0)
(3 -3.37478e-15 0)
(3 -6.54787e-14 0)
(3 -1.96629e-13 0)
(3 -8.3028e-13 0)
(3 -3.09449e-12 0)
(3 -3.84495e-11 0)
(3 -6.76648e-11 0)
(3 5.8609e-10 0)
(3 5.64224e-08 0)
(3 4.87446e-07 0)
(3 1.4331e-06 0)
(3.00001 1.76382e-05 0)
(2.99963 -0.000734385 0)
(2.98568 -0.0213137 0)
(2.84603 -0.208438 0)
(2.68596 -0.485142 0)
(2.3676 -0.831896 0)
(2.3057 -0.871762 0)
(2.31457 -0.83577 0)
(3 1.85033e-15 0)
(3 2.57537e-15 0)
(3 3.60763e-15 0)
(3 2.30277e-15 0)
(3 -5.73401e-14 0)
(3 -5.83867e-13 0)
(3 -1.9959e-12 0)
(3 -2.62491e-12 0)
(3 -1.99364e-11 0)
(3 -1.96784e-11 0)
(3 -2.35084e-10 0)
(3 8.1556e-09 0)
(3 1.05052e-07 0)
(3 3.30598e-06 0)
(3 2.32254e-06 0)
(3 1.88156e-05 0)
(2.99661 -0.00518352 0)
(2.9552 -0.0630814 0)
(2.78506 -0.311646 0)
(2.45521 -0.709803 0)
(2.39661 -0.778863 0)
(2.33877 -0.825746 0)
(2.32452 -0.836446 0)
(2.32289 -0.836546 0)
(3 -3.9173e-15 0)
(3 -4.81794e-16 0)
(3 6.05517e-15 0)
(3 -5.81881e-13 0)
(3 -2.12239e-12 0)
(3 -4.82273e-12 0)
(3 -6.87474e-12 0)
(3 -6.49056e-12 0)
(3 -1.55835e-10 0)
(3 4.88013e-10 0)
(3 2.77406e-08 0)
(3 1.50461e-06 0)
(3 1.27434e-06 0)
(3.00001 1.91322e-05 0)
(2.99941 -0.000890752 0)
(2.98892 -0.0177383 0)
(2.86693 -0.170836 0)
(2.6028 -0.508468 0)
(2.47404 -0.684592 0)
(2.32423 -0.855786 0)
(2.28872 -0.873852 0)
(2.29767 -0.863577 0)
(2.31565 -0.849645 0)
(2.32278 -0.842368 0)
(3 -2.2672e-13 0)
(3 -1.52828e-13 0)
(3 -8.77148e-12 0)
(3 -6.55245e-12 0)
(3 -1.07534e-11 0)
(3 4.0996e-10 0)
(3 2.70623e-10 0)
(3 3.62993e-10 0)
(3 1.64289e-08 0)
(3 3.6932e-07 0)
(3 4.5404e-06 0)
(3.00001 1.45085e-05 0)
(2.99997 -5.39676e-05 0)
(2.99714 -0.00430349 0)
(2.92782 -0.0893123 0)
(2.76036 -0.310926 0)
(2.4846 -0.64867 0)
(2.28663 -0.896651 0)
(2.28124 -0.871653 0)
(2.30882 -0.858183 0)
(2.31336 -0.856482 0)
(2.32408 -0.850068 0)
(2.33576 -0.841162 0)
(2.34065 -0.840031 0)
(3 -8.01909e-13 0)
(3 -1.17752e-10 0)
(3 -1.80295e-10 0)
(3 3.46923e-10 0)
(3 -2.47358e-10 0)
(3 4.15215e-08 0)
(3 9.30644e-08 0)
(3 3.54129e-07 0)
(3 6.29192e-06 0)
(3 6.09104e-06 0)
(3.00002 5.07516e-05 0)
(2.9989 -0.00149159 0)
(2.96413 -0.044866 0)
(2.85766 -0.193553 0)
(2.53324 -0.597471 0)
(2.33425 -0.826366 0)
(2.317 -0.848307 0)
(2.31233 -0.870309 0)
(2.31619 -0.873633 0)
(2.33031 -0.865116 0)
(2.34018 -0.851502 0)
(2.34769 -0.836656 0)
(2.35191 -0.833298 0)
(2.3511 -0.836278 0)
(3 9.25414e-11 0)
(3 -2.87621e-09 0)
(3 3.93377e-08 0)
(3 5.62334e-08 0)
(3 4.81965e-07 0)
(3 7.14196e-07 0)
(3 5.98294e-06 0)
(3 5.12919e-06 0)
(3.00002 5.15423e-05 0)
(2.9993 -0.000672315 0)
(2.98346 -0.024531 0)
(2.89697 -0.141439 0)
(2.58851 -0.527912 0)
(2.44058 -0.730012 0)
(2.37226 -0.838906 0)
(2.30289 -0.890691 0)
(2.30099 -0.893093 0)
(2.32186 -0.878281 0)
(2.34127 -0.859844 0)
(2.3536 -0.858108 0)
(2.35875 -0.84487 0)
(2.35928 -0.839366 0)
(2.35865 -0.83895 0)
(2.35079 -0.845563 0)
(3 8.64443e-09 0)
(3 1.38419e-06 0)
(3 1.35274e-06 0)
(3 6.15836e-07 0)
(3 8.0819e-06 0)
(2.99999 -2.18922e-05 0)
(3.00007 0.000146078 0)
(2.99917 -0.00142705 0)
(2.99142 -0.0160269 0)
(2.89442 -0.163953 0)
(2.72288 -0.446729 0)
(2.50216 -0.727097 0)
(2.30815 -0.936015 0)
(2.2725 -0.951959 0)
(2.2855 -0.935712 0)
(2.30373 -0.916844 0)
(2.32178 -0.897223 0)
(2.34351 -0.871307 0)
(2.35983 -0.84834 0)
(2.36446 -0.842275 0)
(2.36204 -0.842847 0)
(2.35948 -0.843658 0)
(2.35409 -0.847036 0)
(2.34962 -0.85393 0)
(3 -1.76896e-08 0)
(3.00003 3.41628e-05 0)
(2.9999 -0.00013105 0)
(2.9999 -0.000139988 0)
(2.99861 -0.00185204 0)
(2.99137 -0.0128707 0)
(2.96654 -0.0514366 0)
(2.89312 -0.182073 0)
(2.79137 -0.393438 0)
(2.58389 -0.709456 0)
(2.43832 -0.858336 0)
(2.3399 -0.929462 0)
(2.29948 -0.916248 0)
(2.29872 -0.898976 0)
(2.30861 -0.886163 0)
(2.33801 -0.872462 0)
(2.35108 -0.865041 0)
(2.3563 -0.852764 0)
(2.36179 -0.843925 0)
(2.36124 -0.842603 0)
(2.35734 -0.844154 0)
(2.35211 -0.847959 0)
(2.34826 -0.851202 0)
(2.34553 -0.851989 0)
(2.9988 -0.00123158 0)
(2.99096 -0.0104407 0)
(2.95777 -0.0519765 0)
(2.9045 -0.132135 0)
(2.80135 -0.276642 0)
(2.68033 -0.463733 0)
(2.54014 -0.679643 0)
(2.36699 -0.910264 0)
(2.23492 -1.06212 0)
(2.17654 -1.10098 0)
(2.13844 -1.04878 0)
(2.18205 -1.00242 0)
(2.25955 -0.945807 0)
(2.29663 -0.898282 0)
(2.32549 -0.859176 0)
(2.34895 -0.835219 0)
(2.35265 -0.834641 0)
(2.35953 -0.836673 0)
(2.35832 -0.838236 0)
(2.35228 -0.841503 0)
(2.34734 -0.844432 0)
(2.34395 -0.845963 0)
(2.34253 -0.847851 0)
(2.34254 -0.847526 0)
(2.93187 -0.0228375 0)
(2.85455 -0.0382144 0)
(2.746 -0.178841 0)
(2.6833 -0.223468 0)
(2.57016 -0.354808 0)
(2.50034 -0.446711 0)
(2.42621 -0.541566 0)
(2.3479 -0.625797 0)
(2.3128 -0.725653 0)
(2.26031 -0.798114 0)
(2.24946 -0.855429 0)
(2.27987 -0.886347 0)
(2.32445 -0.891017 0)
(2.3394 -0.886688 0)
(2.34768 -0.877891 0)
(2.34791 -0.870249 0)
(2.34606 -0.857256 0)
(2.34675 -0.849274 0)
(2.34615 -0.847269 0)