/*--------------------------------*- C++ -*----------------------------------*\
  =========                 |
  \\      /  F ield         | OpenFOAM: The Open Source CFD Toolbox
   \\    /   O peration     | Website:  https://openfoam.org
    \\  /    A nd           | Version:  7
     \\/     M anipulation  |
\*---------------------------------------------------------------------------*/
FoamFile
{
    version     2.0;
    format      ascii;
    class       volVectorField;
    location    "3.7";
    object      U;
}
// * * * * * * * * * * * * * * * * * * * * * * * * * * * * * * * * * * * * * //

dimensions      [0 1 -1 0 0 0 0];

internalField   nonuniform List<vector> 
73728
(
(3 -1.32571e-16 0)
(3 3.81449e-16 0)
(3 5.98793e-16 0)
(3 5.21738e-16 0)
(3 -2.26808e-16 0)
(3 -2.71858e-16 0)
(3 -2.05807e-16 0)
(3 2.62372e-16 0)
(3 3.63742e-16 0)
(3 4.32168e-16 0)
(3 4.08274e-16 0)
(3 3.04275e-17 0)
(3 -3.83885e-16 0)
(3 -9.52699e-16 0)
(3 -9.02295e-16 0)
(3 -1.28419e-16 0)
(3 2.8701e-16 0)
(3 7.48529e-16 0)
(3 1.1422e-15 0)
(3 1.34365e-15 0)
(3 1.26053e-15 0)
(3 1.2078e-15 0)
(3 1.52505e-15 0)
(3 1.1443e-15 0)
(3 6.3028e-16 0)
(3 3.90917e-16 0)
(3 6.15291e-16 0)
(3 6.41568e-16 0)
(3 5.22816e-16 0)
(3 8.18282e-17 0)
(3 -9.47297e-17 0)
(3 -6.41223e-17 0)
(3 -4.51102e-16 0)
(3 -2.72723e-16 0)
(3 -3.77464e-16 0)
(3 -7.6711e-16 0)
(3 -1.32683e-15 0)
(3 -1.70275e-15 0)
(3 -1.78865e-15 0)
(3 -1.59969e-15 0)
(3 -1.14527e-15 0)
(3 5.33514e-16 0)
(3 8.49864e-16 0)
(3 3.7368e-16 0)
(3 2.4306e-16 0)
(3 1.20062e-17 0)
(3 -4.45491e-16 0)
(3 -2.47864e-16 0)
(3 2.315e-17 0)
(3 1.46594e-16 0)
(3 4.27371e-17 0)
(3 -3.33158e-16 0)
(3 -3.93556e-16 0)
(3 -1.2432e-16 0)
(3 8.69197e-16 0)
(3 8.6688e-16 0)
(3 4.6537e-16 0)
(3 1.22882e-16 0)
(3 4.96224e-16 0)
(3 2.83259e-16 0)
(3 2.00711e-16 0)
(3 1.76083e-16 0)
(3 6.53841e-17 0)
(3 -2.51124e-16 0)
(3 -1.14715e-15 0)
(3 -2.55076e-15 0)
(3 -2.88116e-15 0)
(3 -2.09176e-15 0)
(3 -1.31935e-15 0)
(3 -1.14492e-15 0)
(3 -1.52823e-15 0)
(3 -7.64655e-16 0)
(3 -1.43119e-15 0)
(3 -1.55065e-15 0)
(3 -7.36908e-16 0)
(3 8.12054e-17 0)
(3 1.15121e-15 0)
(3 1.5877e-15 0)
(3 1.90983e-15 0)
(3 9.89055e-16 0)
(3 3.97877e-16 0)
(3 -6.2251e-16 0)
(3 -1.57168e-15 0)
(3 -1.2262e-15 0)
(3 3.9894e-16 0)
(3 2.29776e-16 0)
(3 -6.23068e-16 0)
(3 -9.03004e-16 0)
(3 -1.06529e-15 0)
(3 -1.66373e-15 0)
(3 -2.21921e-15 0)
(3 -2.00389e-15 0)
(3 -9.34199e-16 0)
(3 -3.10177e-16 0)
(3 1.18975e-16 0)
(3 7.26765e-16 0)
(3 9.95754e-17 0)
(3 1.10221e-16 0)
(3 1.26623e-16 0)
(3 -2.11876e-16 0)
(3 -1.25721e-15 0)
(3 -3.61093e-16 0)
(3 3.78053e-16 0)
(3 1.24503e-15 0)
(3 1.78444e-15 0)
(3 1.72402e-15 0)
(3 1.44198e-15 0)
(3 5.20757e-16 0)
(3 -8.40417e-16 0)
(3 -7.95491e-16 0)
(3 -1.01903e-15 0)
(3 -2.05042e-16 0)
(3 4.67484e-16 0)
(3 9.1003e-16 0)
(3 1.80643e-15 0)
(3 1.56545e-15 0)
(3 8.78371e-16 0)
(3 8.36715e-16 0)
(3 6.73892e-16 0)
(3 -5.93555e-17 0)
(3 -2.74868e-16 0)
(3 1.67503e-16 0)
(3 3.9788e-16 0)
(3 2.23447e-16 0)
(3 -1.54505e-16 0)
(3 -4.74051e-16 0)
(3 -3.80811e-16 0)
(3 1.63373e-16 0)
(3 -7.04424e-16 0)
(3 -1.45955e-15 0)
(3 -1.40603e-15 0)
(3 -1.5273e-15 0)
(3 -1.87288e-15 0)
(3 -2.96904e-15 0)
(3 -2.85171e-15 0)
(3 -2.67854e-15 0)
(3 -1.31848e-15 0)
(3 3.34482e-16 0)
(3 5.03851e-16 0)
(3 -4.00505e-16 0)
(3 -6.22167e-16 0)
(3 -6.42432e-16 0)
(3 -7.65473e-16 0)
(3 -9.78883e-16 0)
(3 -7.91482e-16 0)
(3 -3.57405e-16 0)
(3 -3.60567e-16 0)
(3 -5.02199e-16 0)
(3 -4.32267e-16 0)
(3 8.07204e-17 0)
(3 2.68972e-16 0)
(3 8.90067e-17 0)
(3 -4.54964e-16 0)
(3 -6.14605e-16 0)
(3 -5.01881e-16 0)
(3 -6.20268e-16 0)
(3 -7.45297e-16 0)
(3 -2.31874e-16 0)
(3 2.93202e-16 0)
(3 -1.79832e-16 0)
(3 -1.17874e-15 0)
(3 -2.23681e-15 0)
(3 -3.17562e-15 0)
(3 -3.36272e-15 0)
(3 -7.95889e-16 0)
(3 -3.74114e-16 0)
(3 -5.74477e-16 0)
(3 -1.02871e-15 0)
(3 -1.04233e-15 0)
(3 -8.11987e-16 0)
(3 -1.59329e-16 0)
(3 1.62737e-15 0)
(3 2.99414e-15 0)
(3 3.13386e-15 0)
(3 3.31764e-15 0)
(3 2.53382e-15 0)
(3 8.37272e-16 0)
(3 -5.4324e-16 0)
(3 -1.28024e-15 0)
(3 -4.90556e-16 0)
(3 2.57981e-17 0)
(3 -8.39325e-16 0)
(3 -1.0881e-15 0)
(3 -1.45442e-15 0)
(3 -1.52776e-15 0)
(3 -2.09971e-15 0)
(3 -3.35043e-15 0)
(3 -3.32186e-15 0)
(3 -2.32706e-15 0)
(3 -1.46812e-15 0)
(3 -7.83815e-16 0)
(3 9.35367e-16 0)
(3 2.7609e-18 0)
(3 -9.55365e-17 0)
(3 -3.28722e-16 0)
(3 -2.18598e-16 0)
(3 -4.74526e-16 0)
(3 -4.56691e-16 0)
(3 3.87994e-16 0)
(3 6.33694e-16 0)
(3 7.61936e-16 0)
(3 6.26834e-16 0)
(3 5.08273e-16 0)
(3 2.40977e-16 0)
(3 9.50883e-17 0)
(3 6.03069e-16 0)
(3 6.97182e-16 0)
(3 4.32681e-16 0)
(3 6.0783e-16 0)
(3 4.84465e-16 0)
(3 3.54194e-16 0)
(3 -2.15396e-16 0)
(3 -5.3888e-16 0)
(3 -9.50323e-16 0)
(3 -1.19848e-15 0)
(3 -1.48274e-15 0)
(3 -1.42362e-15 0)
(3 -1.1239e-15 0)
(3 -1.64296e-15 0)
(3 -2.31969e-15 0)
(3 -2.62084e-15 0)
(3 -2.2578e-15 0)
(3 -6.10307e-16 0)
(3 -2.16651e-16 0)
(3 -6.96278e-16 0)
(3 -1.58113e-15 0)
(3 -1.89093e-15 0)
(3 -1.80205e-15 0)
(3 -1.98404e-15 0)
(3 -2.29456e-15 0)
(3 -1.92982e-15 0)
(3 -1.86217e-15 0)
(3 -5.49014e-16 0)
(3 2.56146e-16 0)
(3 1.07623e-16 0)
(3 -8.48329e-16 0)
(3 -1.80758e-15 0)
(3 -1.88666e-15 0)
(3 -1.81272e-15 0)
(3 -1.9786e-15 0)
(3 -1.72452e-15 0)
(3 -5.90506e-16 0)
(3 -6.51856e-16 0)
(3 -1.556e-16 0)
(3 1.44082e-16 0)
(3 -5.52308e-16 0)
(3 -1.92856e-15 0)
(3 -2.63707e-15 0)
(3 -3.24588e-15 0)
(3 -2.58521e-15 0)
(3 -1.58518e-15 0)
(3 -5.34803e-16 0)
(3 7.06571e-17 0)
(3 -5.20613e-16 0)
(3 -8.20382e-16 0)
(3 -3.64417e-16 0)
(3 3.96621e-16 0)
(3 5.72292e-16 0)
(3 -3.88579e-16 0)
(3 -1.19318e-15 0)
(3 -1.7033e-15 0)
(3 -5.17549e-16 0)
(3 -3.43198e-16 0)
(3 -8.17431e-16 0)
(3 -9.80431e-16 0)
(3 -1.55231e-15 0)
(3 -3.37893e-16 0)
(3 7.83625e-16 0)
(3 1.1105e-15 0)
(3 2.02983e-15 0)
(3 2.66632e-15 0)
(3 2.30487e-15 0)
(3 4.83964e-16 0)
(3 -9.44876e-16 0)
(3 -1.15774e-15 0)
(3 -1.10411e-15 0)
(3 -1.1664e-15 0)
(3 -1.51064e-15 0)
(3 -1.34619e-15 0)
(3 -1.38842e-15 0)
(3 -1.70912e-15 0)
(3 -1.66441e-15 0)
(3 -1.83058e-15 0)
(3 -1.11606e-15 0)
(3 -2.3212e-16 0)
(3 2.21778e-16 0)
(3 6.48183e-16 0)
(3 1.16835e-15 0)
(3 -2.44912e-16 0)
(3 -3.54271e-16 0)
(3 -1.91568e-16 0)
(3 1.21015e-16 0)
(3 -3.45881e-16 0)
(3 -7.15639e-16 0)
(3 -3.4086e-17 0)
(3 -1.42964e-16 0)
(3 -4.36495e-16 0)
(3 -3.84703e-16 0)
(3 -4.0583e-16 0)
(3 4.02738e-17 0)
(3 6.00615e-16 0)
(3 1.54269e-16 0)
(3 2.72055e-16 0)
(3 7.18708e-16 0)
(3 -5.79604e-16 0)
(3 -1.26554e-15 0)
(3 -2.06311e-15 0)
(3 -1.87222e-15 0)
(3 -1.05034e-15 0)
(3 -7.06721e-16 0)
(3 -3.632e-16 0)
(3 -1.0536e-16 0)
(3 -1.0644e-15 0)
(3 -2.06095e-15 0)
(3 -2.37274e-15 0)
(3 -2.00145e-15 0)
(3 -4.1496e-16 0)
(3 -2.0235e-16 0)
(3 -3.72255e-16 0)
(3 -5.30524e-16 0)
(3 -1.06522e-16 0)
(3 -4.12453e-16 0)
(3 -5.10691e-16 0)
(3 -7.75502e-16 0)
(3 -1.37677e-15 0)
(3 -9.69548e-16 0)
(3 -2.51895e-16 0)
(3 2.55453e-16 0)
(3 9.59138e-16 0)
(3 1.35485e-15 0)
(3 7.54097e-16 0)
(3 1.04937e-15 0)
(3 6.46139e-17 0)
(3 -1.38038e-15 0)
(3 -1.44341e-15 0)
(3 -1.1955e-15 0)
(3 -4.94716e-16 0)
(3 -6.05123e-16 0)
(3 -1.00811e-15 0)
(3 -8.76703e-16 0)
(3 -8.98828e-16 0)
(3 -1.66398e-15 0)
(3 -1.31291e-15 0)
(3 -2.36624e-15 0)
(3 -3.49714e-15 0)
(3 -2.69185e-15 0)
(3 -1.19927e-15 0)
(3 -1.70405e-16 0)
(3 -1.79078e-16 0)
(3 -5.20264e-16 0)
(3 -1.15559e-15 0)
(3 -8.88724e-16 0)
(3 5.30535e-16 0)
(3 1.48175e-15 0)
(3 1.04018e-15 0)
(3 -1.00463e-16 0)
(3 -2.15106e-16 0)
(3 -6.21925e-17 0)
(3 6.97833e-16 0)
(3 3.18246e-16 0)
(3 -1.07984e-15 0)
(3 -1.20123e-15 0)
(3 -8.87957e-16 0)
(3 4.55327e-16 0)
(3 1.04516e-15 0)
(3 1.12815e-15 0)
(3 8.85281e-16 0)
(3 3.09728e-16 0)
(3 2.67508e-16 0)
(3 2.90997e-16 0)
(3 -1.72266e-16 0)
(3 -8.11158e-16 0)
(3 -1.40735e-15 0)
(3 -1.73919e-15 0)
(3 -2.6524e-15 0)
(3 -3.19456e-15 0)
(3 -3.19981e-15 0)
(3 -3.17129e-15 0)
(3 -1.93058e-15 0)
(3 -7.88145e-16 0)
(3 1.316e-15 0)
(3 1.58123e-15 0)
(3 1.22934e-15 0)
(3 1.0717e-15 0)
(3 -7.49904e-17 0)
(3 -6.08925e-16 0)
(3 -5.8663e-16 0)
(3 -5.20404e-16 0)
(3 -2.00213e-16 0)
(3 9.26443e-17 0)
(3 -1.44335e-16 0)
(3 -2.27616e-16 0)
(3 -4.45764e-17 0)
(3 -5.54346e-17 0)
(3 -1.08507e-17 0)
(3 4.1737e-17 0)
(3 7.94542e-17 0)
(3 -1.78896e-16 0)
(3 -6.04893e-16 0)
(3 -6.18991e-16 0)
(3 -9.7994e-16 0)
(3 -1.59305e-15 0)
(3 -1.90624e-15 0)
(3 -8.72641e-16 0)
(3 -4.66282e-16 0)
(3 1.30469e-16 0)
(3 -1.84422e-16 0)
(3 4.42697e-16 0)
(3 4.53611e-16 0)
(3 -2.53765e-17 0)
(3 8.17811e-17 0)
(3 4.45722e-16 0)
(3 5.95513e-16 0)
(3 6.34968e-16 0)
(3 9.18761e-17 0)
(3 6.65215e-17 0)
(3 -3.33653e-16 0)
(3 -5.7962e-16 0)
(3 -2.73637e-16 0)
(3 -4.27943e-16 0)
(3 -9.85499e-17 0)
(3 4.20809e-16 0)
(3 7.59868e-16 0)
(3 2.08924e-15 0)
(3 1.78392e-15 0)
(3 2.06719e-15 0)
(3 1.73599e-15 0)
(3 9.55523e-16 0)
(3 -3.69388e-17 0)
(3 -4.62003e-16 0)
(3 -1.2845e-15 0)
(3 -1.83006e-15 0)
(3 -1.73091e-15 0)
(3 -1.81271e-15 0)
(3 -1.70934e-15 0)
(3 -1.57099e-15 0)
(3 -1.42792e-15 0)
(3 -7.11699e-16 0)
(3 -2.54307e-16 0)
(3 -1.10137e-15 0)
(3 -1.58249e-15 0)
(3 -2.28657e-15 0)
(3 -3.03324e-15 0)
(3 -2.83808e-15 0)
(3 -1.84189e-15 0)
(3 -1.60912e-15 0)
(3 -8.19677e-16 0)
(3 3.78034e-17 0)
(3 4.79043e-16 0)
(3 1.01934e-15 0)
(3 1.57913e-15 0)
(3 1.35401e-15 0)
(3 1.91143e-15 0)
(3 1.65265e-15 0)
(3 1.0215e-15 0)
(3 1.37972e-16 0)
(3 -1.49307e-15 0)
(3 -1.95232e-15 0)
(3 -1.91907e-15 0)
(3 -1.10095e-15 0)
(3 -2.80125e-16 0)
(3 5.46633e-16 0)
(3 6.00244e-16 0)
(3 7.83235e-16 0)
(3 1.13349e-15 0)
(3 1.06539e-15 0)
(3 4.87697e-16 0)
(3 -3.47281e-16 0)
(3 -8.76702e-16 0)
(3 -1.57535e-15 0)
(3 -1.99185e-15 0)
(3 -2.60409e-15 0)
(3 -3.39815e-15 0)
(3 -3.49177e-15 0)
(3 -2.34863e-15 0)
(3 -4.73587e-16 0)
(3 4.57814e-16 0)
(3 8.32512e-16 0)
(3 8.82763e-16 0)
(3 9.16281e-16 0)
(3 1.01376e-16 0)
(3 3.05005e-16 0)
(3 -1.1499e-16 0)
(3 -4.11827e-16 0)
(3 -1.93472e-16 0)
(3 -2.59902e-17 0)
(3 -1.01747e-15 0)
(3 -8.86327e-16 0)
(3 -4.2941e-16 0)
(3 -2.04946e-16 0)
(3 5.59412e-17 0)
(3 2.90854e-16 0)
(3 3.07186e-16 0)
(3 7.08255e-16 0)
(3 4.30788e-16 0)
(3 1.5946e-16 0)
(3 4.02797e-16 0)
(3 -8.3302e-17 0)
(3 -5.83101e-16 0)
(3 -4.35886e-16 0)
(3 -4.04859e-16 0)
(3 -1.40537e-15 0)
(3 -1.00664e-15 0)
(3 -7.95135e-16 0)
(3 -3.39616e-16 0)
(3 -9.81439e-17 0)
(3 5.36014e-17 0)
(3 8.59217e-16 0)
(3 1.06973e-15 0)
(3 9.6068e-16 0)
(3 5.21484e-16 0)
(3 1.06537e-16 0)
(3 3.0062e-16 0)
(3 1.05114e-15 0)
(3 1.16601e-15 0)
(3 2.38802e-16 0)
(3 -3.13162e-16 0)
(3 -5.0221e-16 0)
(3 4.35915e-18 0)
(3 8.08238e-16 0)
(3 6.13859e-16 0)
(3 7.87368e-16 0)
(3 3.42612e-16 0)
(3 -8.60906e-17 0)
(3 -3.70376e-16 0)
(3 -1.07102e-16 0)
(3 -5.78028e-16 0)
(3 -1.59093e-15 0)
(3 -1.95739e-15 0)
(3 -1.76334e-15 0)
(3 -1.31103e-15 0)
(3 -9.1358e-16 0)
(3 -7.207e-16 0)
(3 -1.0624e-16 0)
(3 1.72559e-16 0)
(3 -3.5037e-16 0)
(3 -7.6714e-17 0)
(3 -1.30766e-15 0)
(3 -3.36254e-15 0)
(3 -3.05113e-15 0)
(3 -1.47556e-15 0)
(3 -9.68918e-16 0)
(3 -3.15368e-16 0)
(3 -9.81905e-17 0)
(3 -8.06451e-16 0)
(3 -8.69014e-16 0)
(3 8.19928e-16 0)
(3 2.34772e-15 0)
(3 2.79303e-15 0)
(3 2.73884e-15 0)
(3 2.23729e-15 0)
(3 9.63836e-16 0)
(3 4.06426e-16 0)
(3 3.30723e-17 0)
(3 -9.05459e-16 0)
(3 -1.78775e-15 0)
(3 -2.25281e-15 0)
(3 -2.36387e-15 0)
(3 -1.27721e-15 0)
(3 -1.4966e-17 0)
(3 6.41829e-17 0)
(3 1.23145e-16 0)
(3 8.28968e-17 0)
(3 1.01548e-16 0)
(3 1.6325e-16 0)
(3 -6.54484e-16 0)
(3 -5.41502e-16 0)
(3 -4.07954e-16 0)
(3 -6.23202e-16 0)
(3 -9.81899e-16 0)
(3 -7.81862e-16 0)
(3 5.18284e-16 0)
(3 3.54514e-16 0)
(3 8.3132e-16 0)
(3 1.59723e-15 0)
(3 1.54056e-15 0)
(3 4.46485e-16 0)
(3 2.21796e-16 0)
(3 -1.0367e-16 0)
(3 -3.88199e-16 0)
(3 -5.47429e-16 0)
(3 -1.20034e-15 0)
(3 -1.32859e-15 0)
(3 -1.28326e-15 0)
(3 -9.37449e-16 0)
(3 -7.03213e-16 0)
(3 2.34808e-16 0)
(3 1.03569e-15 0)
(3 1.55033e-15 0)
(3 9.3241e-16 0)
(3 8.39766e-16 0)
(3 9.82911e-16 0)
(3 5.39363e-16 0)
(3 4.06369e-16 0)
(3 9.91787e-17 0)
(3 -3.08393e-16 0)
(3 -2.37998e-16 0)
(3 -1.56823e-15 0)
(3 -1.50246e-15 0)
(3 -2.09281e-15 0)
(3 -2.4247e-15 0)
(3 -2.40613e-15 0)
(3 -1.29349e-15 0)
(3 2.46993e-16 0)
(3 -1.55031e-16 0)
(3 -2.16263e-16 0)
(3 2.87568e-16 0)
(3 2.47031e-16 0)
(3 1.11378e-15 0)
(3 1.86934e-15 0)
(3 1.6677e-15 0)
(3 1.0358e-15 0)
(3 -6.87112e-16 0)
(3 -1.13328e-15 0)
(3 -8.81596e-16 0)
(3 -8.0822e-16 0)
(3 -7.7483e-16 0)
(3 -1.20368e-15 0)
(3 -8.93057e-16 0)
(3 -4.42504e-16 0)
(3 4.80663e-16 0)
(3 1.25221e-15 0)
(3 1.0798e-15 0)
(3 5.78865e-17 0)
(3 -1.30924e-16 0)
(3 8.38533e-17 0)
(3 -1.39015e-16 0)
(3 -1.28613e-16 0)
(3 -1.03485e-15 0)
(3 -1.59484e-15 0)
(3 -1.40376e-15 0)
(3 -1.10839e-15 0)
(3 -3.61544e-16 0)
(3 -2.45405e-17 0)
(3 2.29691e-16 0)
(3 3.34495e-16 0)
(3 -1.25679e-15 0)
(3 -1.58565e-15 0)
(3 -1.4894e-15 0)
(3 -9.05934e-16 0)
(3 -1.63097e-15 0)
(3 -1.84863e-15 0)
(3 -1.81841e-15 0)
(3 -1.88616e-15 0)
(3 9.92817e-18 0)
(3 1.47445e-15 0)
(3 1.33768e-15 0)
(3 1.13323e-15 0)
(3 1.70635e-15 0)
(3 1.83301e-15 0)
(3 1.13294e-15 0)
(3 -5.14515e-16 0)
(3 -2.43055e-15 0)
(3 -3.18053e-15 0)
(3 -2.77696e-15 0)
(3 -2.2362e-15 0)
(3 -1.50415e-15 0)
(3 -1.25179e-15 0)
(3 -4.21494e-16 0)
(3 -3.15058e-18 0)
(3 -2.34846e-16 0)
(3 -2.75536e-16 0)
(3 -2.11931e-16 0)
(3 1.79748e-16 0)
(3 8.05587e-16 0)
(3 1.22353e-15 0)
(3 5.71932e-16 0)
(3 9.41694e-17 0)
(3 -1.71552e-16 0)
(3 1.02652e-15 0)
(3 1.60191e-15 0)
(3 1.74395e-15 0)
(3 1.35023e-16 0)
(3 -1.03938e-16 0)
(3 -1.3601e-16 0)
(3 1.39275e-16 0)
(3 5.73351e-16 0)
(3 4.519e-17 0)
(3 -4.13417e-17 0)
(3 -1.88494e-16 0)
(3 -6.76734e-18 0)
(3 5.2546e-16 0)
(3 8.30116e-16 0)
(3 1.24668e-15 0)
(3 1.11858e-15 0)
(3 5.5023e-18 0)
(3 -3.32334e-16 0)
(3 -7.04829e-16 0)
(3 8.77015e-17 0)
(3 1.03158e-15 0)
(3 1.91284e-15 0)
(3 9.52532e-16 0)
(3 -1.33681e-16 0)
(3 -8.85846e-16 0)
(3 -1.53446e-15 0)
(3 -1.42337e-15 0)
(3 -7.95936e-16 0)
(3 2.00947e-16 0)
(3 -4.4885e-17 0)
(3 -7.77366e-16 0)
(3 -9.4154e-16 0)
(3 -6.23437e-16 0)
(3 -1.01553e-15 0)
(3 -3.39858e-16 0)
(3 9.84474e-16 0)
(3 1.01006e-15 0)
(3 1.20123e-15 0)
(3 1.63633e-15 0)
(3 4.15914e-16 0)
(3 -2.97619e-16 0)
(3 -1.25165e-15 0)
(3 -1.85436e-15 0)
(3 -1.50777e-15 0)
(3 -9.08449e-16 0)
(3 -5.09093e-16 0)
(3 -2.494e-16 0)
(3 -2.14888e-16 0)
(3 -3.49795e-16 0)
(3 4.74385e-16 0)
(3 8.30927e-16 0)
(3 7.51049e-16 0)
(3 7.96235e-16 0)
(3 6.43206e-16 0)
(3 2.99988e-16 0)
(3 -6.942e-16 0)
(3 -2.49646e-15 0)
(3 -3.37841e-15 0)
(3 -1.97978e-15 0)
(3 -3.00371e-16 0)
(3 1.98514e-15 0)
(3 3.62521e-15 0)
(3 3.25716e-15 0)
(3 1.29158e-15 0)
(3 -3.10886e-16 0)
(3 -9.3076e-16 0)
(3 -1.26023e-15 0)
(3 -1.61452e-15 0)
(3 -1.71153e-15 0)
(3 -1.66273e-15 0)
(3 -2.0994e-15 0)
(3 -2.22261e-15 0)
(3 -2.05826e-15 0)
(3 -1.50599e-15 0)
(3 -1.08266e-15 0)
(3 -4.15696e-16 0)
(3 4.27072e-16 0)
(3 2.09202e-16 0)
(3 -1.46523e-15 0)
(3 -1.73252e-15 0)
(3 -1.45575e-15 0)
(3 -1.67422e-15 0)
(3 -2.0538e-15 0)
(3 -1.67639e-15 0)
(3 -8.76421e-16 0)
(3 -8.58102e-16 0)
(3 -1.0021e-15 0)
(3 -8.93382e-16 0)
(3 -7.91479e-16 0)
(3 -7.94552e-16 0)
(3 -5.23697e-16 0)
(3 7.31409e-16 0)
(3 2.0368e-15 0)
(3 2.04879e-15 0)
(3 8.39655e-16 0)
(3 9.20666e-16 0)
(3 9.72961e-16 0)
(3 6.89373e-16 0)
(3 9.77379e-16 0)
(3 -4.20642e-16 0)
(3 -2.14136e-16 0)
(3 2.64142e-16 0)
(3 6.25744e-16 0)
(3 8.82734e-16 0)
(3 1.01909e-15 0)
(3 1.00687e-15 0)
(3 4.78877e-16 0)
(3 2.95101e-16 0)
(3 2.40465e-16 0)
(3 2.72857e-16 0)
(3 1.90941e-16 0)
(3 -1.41125e-16 0)
(3 -6.72571e-16 0)
(3 -1.12277e-15 0)
(3 -1.44315e-15 0)
(3 -1.0169e-15 0)
(3 -3.73911e-16 0)
(3 2.85592e-16 0)
(3 6.22574e-16 0)
(3 -3.90108e-16 0)
(3 -1.17742e-15 0)
(3 -1.83745e-15 0)
(3 -1.43483e-15 0)
(3 -3.8586e-16 0)
(3 5.07301e-16 0)
(3 8.68883e-16 0)
(3 6.12561e-16 0)
(3 3.2256e-16 0)
(3 -3.13482e-16 0)
(3 -1.27705e-15 0)
(3 -1.11444e-15 0)
(3 -2.1108e-16 0)
(3 6.34417e-16 0)
(3 7.14706e-16 0)
(3 9.41707e-16 0)
(3 4.37271e-16 0)
(3 -9.56393e-17 0)
(3 -1.39941e-15 0)
(3 -2.08423e-15 0)
(3 -1.96281e-15 0)
(3 -1.5235e-15 0)
(3 -7.05174e-16 0)
(3 1.31658e-16 0)
(3 -3.48212e-16 0)
(3 -3.5771e-16 0)
(3 2.77839e-17 0)
(3 1.08561e-15 0)
(3 7.2672e-16 0)
(3 5.21671e-16 0)
(3 -2.243e-17 0)
(3 -3.72576e-16 0)
(3 -7.83192e-16 0)
(3 -1.34937e-15 0)
(3 -3.18e-15 0)
(3 -1.92956e-15 0)
(3 1.48298e-15 0)
(3 2.22275e-15 0)
(3 3.13594e-15 0)
(3 2.62782e-15 0)
(3 1.42724e-15 0)
(3 1.12627e-15 0)
(3 3.48066e-16 0)
(3 -7.68496e-16 0)
(3 -8.74002e-16 0)
(3 -7.23914e-16 0)
(3 -9.415e-16 0)
(3 -1.40432e-15 0)
(3 -2.57783e-15 0)
(3 -3.65589e-15 0)
(3 -3.3197e-15 0)
(3 -1.10973e-15 0)
(3 -6.82238e-16 0)
(3 -2.65012e-16 0)
(3 2.4548e-16 0)
(3 -4.04138e-16 0)
(3 -6.36851e-16 0)
(3 -6.52021e-16 0)
(3 -6.29408e-16 0)
(3 -9.70864e-17 0)
(3 5.78045e-16 0)
(3 -3.53574e-17 0)
(3 -6.30965e-16 0)
(3 -4.06189e-16 0)
(3 -1.67207e-16 0)
(3 2.103e-16 0)
(3 1.13189e-16 0)
(3 -1.81102e-16 0)
(3 1.46245e-16 0)
(3 4.54095e-16 0)
(3 8.42467e-16 0)
(3 1.15043e-15 0)
(3 1.60681e-15 0)
(3 1.37616e-15 0)
(3 1.18896e-15 0)
(3 1.36737e-15 0)
(3 -2.3404e-16 0)
(3 -1.70039e-16 0)
(3 4.78778e-16 0)
(3 3.38539e-16 0)
(3 -3.79522e-17 0)
(3 5.83672e-16 0)
(3 6.74667e-16 0)
(3 6.54419e-16 0)
(3 5.69679e-17 0)
(3 -1.24747e-15 0)
(3 -1.43568e-15 0)
(3 -1.89017e-15 0)
(3 -1.24607e-15 0)
(3 -9.61645e-16 0)
(3 -1.00976e-15 0)
(3 -8.83821e-16 0)
(3 -9.92351e-16 0)
(3 -1.10266e-15 0)
(3 -1.20433e-15 0)
(3 -1.14135e-15 0)
(3 -1.15186e-15 0)
(3 -1.55043e-15 0)
(3 -1.17911e-15 0)
(3 -7.62421e-16 0)
(3 -5.53521e-16 0)
(3 6.50377e-16 0)
(3 1.36488e-15 0)
(3 1.23754e-15 0)
(3 9.61124e-16 0)
(3 3.66117e-16 0)
(3 -3.95453e-16 0)
(3 -9.79062e-16 0)
(3 -1.42178e-15 0)
(3 -1.44355e-15 0)
(3 -1.42161e-15 0)
(3 -1.15563e-15 0)
(3 -5.52895e-16 0)
(3 -2.48218e-16 0)
(3 -2.48455e-16 0)
(3 -2.99652e-16 0)
(3 -5.70869e-16 0)
(3 -8.18882e-16 0)
(3 3.44851e-17 0)
(3 2.18571e-16 0)
(3 6.10276e-17 0)
(3 3.01942e-16 0)
(3 1.04335e-17 0)
(3 -1.48276e-16 0)
(3 -6.34567e-17 0)
(3 -4.78095e-16 0)
(3 -4.88074e-16 0)
(3 -6.80039e-16 0)
(3 -1.10093e-15 0)
(3 -5.58095e-16 0)
(3 -1.6948e-16 0)
(3 4.31063e-16 0)
(3 2.04017e-15 0)
(3 1.48718e-15 0)
(3 9.22322e-16 0)
(3 1.29782e-15 0)
(3 7.27737e-16 0)
(3 -2.27315e-17 0)
(3 -4.40989e-16 0)
(3 -6.32628e-16 0)
(3 -3.58755e-16 0)
(3 -3.55169e-16 0)
(3 -7.21151e-16 0)
(3 -7.80849e-16 0)
(3 -1.368e-15 0)
(3 -2.07433e-15 0)
(3 -1.09528e-15 0)
(3 9.03157e-16 0)
(3 9.23685e-16 0)
(3 9.65686e-16 0)
(3 1.0749e-15 0)
(3 1.63998e-15 0)
(3 1.95867e-15 0)
(3 2.38942e-16 0)
(3 -1.62086e-16 0)
(3 -4.30063e-16 0)
(3 -7.02742e-16 0)
(3 -2.11175e-15 0)
(3 -3.0222e-15 0)
(3 -1.55787e-15 0)
(3 -3.18537e-16 0)
(3 2.08367e-16 0)
(3 -9.16942e-17 0)
(3 -2.48729e-16 0)
(3 -5.27459e-16 0)
(3 -2.32497e-16 0)
(3 1.16064e-17 0)
(3 -1.03853e-16 0)
(3 -2.25197e-16 0)
(3 -4.36077e-16 0)
(3 -4.44847e-16 0)
(3 1.16665e-16 0)
(3 -1.64795e-17 0)
(3 5.62355e-16 0)
(3 6.29905e-16 0)
(3 4.61356e-16 0)
(3 -1.72477e-16 0)
(3 1.61936e-17 0)
(3 3.51965e-16 0)
(3 1.02779e-15 0)
(3 1.0543e-15 0)
(3 5.24533e-16 0)
(3 -1.16516e-16 0)
(3 -9.20038e-16 0)
(3 -9.13131e-16 0)
(3 2.0818e-16 0)
(3 -1.31132e-16 0)
(3 -9.97032e-16 0)
(3 5.20821e-16 0)
(3 5.4405e-16 0)
(3 -2.85696e-16 0)
(3 -1.23358e-15 0)
(3 -1.26626e-15 0)
(3 -5.04262e-16 0)
(3 -1.17817e-16 0)
(3 1.4442e-16 0)
(3 3.65948e-17 0)
(3 4.20661e-16 0)
(3 8.07582e-16 0)
(3 8.82007e-16 0)
(3 7.83371e-16 0)
(3 2.79336e-16 0)
(3 2.58696e-16 0)
(3 1.00435e-16 0)
(3 -6.78673e-16 0)
(3 -1.94671e-15 0)
(3 -2.59973e-15 0)
(3 -2.99808e-15 0)
(3 -1.22935e-15 0)
(3 -5.17736e-16 0)
(3 -3.1725e-16 0)
(3 -2.79977e-16 0)
(3 -1.56437e-16 0)
(3 -2.57088e-16 0)
(3 -4.16944e-16 0)
(3 1.48335e-17 0)
(3 2.50826e-16 0)
(3 -1.13905e-15 0)
(3 -2.27759e-15 0)
(3 -2.51879e-15 0)
(3 -2.25529e-15 0)
(3 -1.62979e-15 0)
(3 -8.53157e-16 0)
(3 -4.46912e-16 0)
(3 1.53919e-16 0)
(3 6.65217e-16 0)
(3 1.30743e-15 0)
(3 7.28966e-16 0)
(3 -4.29453e-16 0)
(3 -8.42785e-16 0)
(3 -7.26907e-16 0)
(3 -3.33626e-16 0)
(3 -1.57316e-16 0)
(3 -4.00717e-16 0)
(3 -6.8188e-16 0)
(3 -9.06904e-16 0)
(3 -7.14003e-16 0)
(3 -9.72632e-16 0)
(3 -5.93412e-16 0)
(3 -5.06263e-16 0)
(3 -9.90558e-16 0)
(3 -7.60931e-16 0)
(3 -7.62461e-17 0)
(3 -5.30123e-17 0)
(3 -1.56866e-17 0)
(3 2.27627e-16 0)
(3 2.81162e-16 0)
(3 1.50691e-15 0)
(3 1.57448e-15 0)
(3 2.7462e-16 0)
(3 -5.84553e-16 0)
(3 -1.63608e-15 0)
(3 -3.16079e-15 0)
(3 -3.61166e-15 0)
(3 -4.07666e-15 0)
(3 -3.36857e-15 0)
(3 -2.76177e-15 0)
(3 -2.7674e-15 0)
(3 -2.11424e-15 0)
(3 -1.45108e-15 0)
(3 -1.97468e-15 0)
(3 -1.41984e-15 0)
(3 -5.82245e-16 0)
(3 -6.14178e-16 0)
(3 -8.44981e-16 0)
(3 -1.04773e-15 0)
(3 -1.46986e-15 0)
(3 -1.39745e-15 0)
(3 2.12764e-17 0)
(3 -6.73436e-17 0)
(3 -3.96843e-16 0)
(3 -3.47577e-16 0)
(3 -8.41969e-17 0)
(3 4.98956e-16 0)
(3 9.10406e-16 0)
(3 1.70506e-15 0)
(3 2.59e-15 0)
(3 1.85878e-15 0)
(3 1.18364e-15 0)
(3 -2.48962e-17 0)
(3 -2.82479e-16 0)
(3 -2.92139e-16 0)
(3 2.93538e-17 0)
(3 -5.13777e-16 0)
(3 6.76558e-16 0)
(3 8.80242e-16 0)
(3 1.76228e-16 0)
(3 -1.34533e-16 0)
(3 -8.50712e-17 0)
(3 4.32697e-16 0)
(3 -2.93024e-16 0)
(3 -4.28134e-16 0)
(3 2.45134e-17 0)
(3 3.47038e-16 0)
(3 5.71389e-16 0)
(3 4.94299e-16 0)
(3 -2.81346e-16 0)
(3 -3.33235e-16 0)
(3 7.03173e-16 0)
(3 1.28553e-15 0)
(3 1.33239e-15 0)
(3 1.23803e-15 0)
(3 -8.8922e-16 0)
(3 -2.00634e-15 0)
(3 -1.46943e-15 0)
(3 -1.12057e-16 0)
(3 2.77385e-16 0)
(3 1.92877e-16 0)
(3 3.37319e-16 0)
(3 -1.26358e-16 0)
(3 -5.70255e-16 0)
(3 -2.84863e-16 0)
(3 4.07871e-16 0)
(3 -1.37358e-15 0)
(3 -3.12607e-15 0)
(3 -3.70976e-15 0)
(3 -2.4633e-15 0)
(3 -8.64764e-16 0)
(3 -7.64553e-16 0)
(3 -3.78175e-16 0)
(3 6.84195e-17 0)
(3 2.1964e-17 0)
(3 1.8936e-16 0)
(3 1.49336e-16 0)
(3 -1.71001e-15 0)
(3 -1.6272e-15 0)
(3 -1.59153e-15 0)
(3 -1.93094e-15 0)
(3 -1.81898e-15 0)
(3 -5.37765e-17 0)
(3 1.89241e-16 0)
(3 -2.24458e-16 0)
(3 -8.2604e-16 0)
(3 -1.50151e-15 0)
(3 -1.738e-15 0)
(3 -1.21384e-15 0)
(3 -8.66282e-16 0)
(3 -4.9517e-16 0)
(3 2.05829e-16 0)
(3 6.53363e-16 0)
(3 6.32293e-16 0)
(3 2.59964e-16 0)
(3 6.39392e-16 0)
(3 3.87082e-16 0)
(3 -4.65027e-17 0)
(3 1.9909e-16 0)
(3 4.8855e-16 0)
(3 -6.16139e-16 0)
(3 -2.51654e-15 0)
(3 -2.74987e-15 0)
(3 -2.06402e-15 0)
(3 -1.86637e-15 0)
(3 -1.85888e-15 0)
(3 -2.45479e-15 0)
(3 -1.91851e-15 0)
(3 -2.62673e-15 0)
(3 -3.9788e-15 0)
(3 -3.73995e-15 0)
(3 -3.29858e-15 0)
(3 -2.54915e-15 0)
(3 -1.85378e-15 0)
(3 -1.35551e-15 0)
(3 -1.11678e-15 0)
(3 -1.14531e-15 0)
(3 2.5909e-17 0)
(3 -6.11465e-16 0)
(3 -5.58668e-16 0)
(3 -4.17978e-16 0)
(3 -5.40901e-17 0)
(3 2.4832e-16 0)
(3 4.82473e-16 0)
(3 1.09638e-15 0)
(3 1.55312e-15 0)
(3 1.37323e-15 0)
(3 8.16495e-16 0)
(3 3.21934e-16 0)
(3 -1.2618e-16 0)
(3 -6.47653e-16 0)
(3 1.17486e-16 0)
(3 7.2827e-16 0)
(3 4.50888e-16 0)
(3 -1.38946e-16 0)
(3 -3.89724e-17 0)
(3 5.24442e-16 0)
(3 5.8583e-16 0)
(3 1.46957e-16 0)
(3 1.15244e-16 0)
(3 -1.46923e-16 0)
(3 6.45215e-16 0)
(3 1.19573e-15 0)
(3 1.16246e-15 0)
(3 6.27241e-16 0)
(3 7.09954e-17 0)
(3 -2.59555e-16 0)
(3 -1.04622e-16 0)
(3 3.31805e-17 0)
(3 6.17376e-16 0)
(3 8.38214e-16 0)
(3 3.17547e-16 0)
(3 8.63623e-17 0)
(3 -3.34075e-16 0)
(3 2.51268e-16 0)
(3 7.30805e-16 0)
(3 9.03952e-16 0)
(3 1.02739e-15 0)
(3 1.18714e-15 0)
(3 9.55808e-16 0)
(3 1.85024e-16 0)
(3 -5.64777e-16 0)
(3 -7.12291e-17 0)
(3 -9.25e-18 0)
(3 -4.1984e-16 0)
(3 -9.349e-16 0)
(3 -7.16891e-16 0)
(3 -7.35641e-16 0)
(3 -1.49339e-15 0)
(3 -1.86931e-15 0)
(3 -1.08775e-15 0)
(3 5.30968e-16 0)
(3 4.00861e-16 0)
(3 -2.77827e-16 0)
(3 -2.93056e-16 0)
(3 -4.38189e-16 0)
(3 -6.38612e-16 0)
(3 -7.02282e-16 0)
(3 -1.71944e-16 0)
(3 -1.22949e-16 0)
(3 3.38504e-16 0)
(3 -8.36045e-17 0)
(3 -1.55476e-15 0)
(3 -2.41461e-15 0)
(3 -8.70476e-16 0)
(3 -5.72334e-16 0)
(3 5.38239e-16 0)
(3 1.30098e-15 0)
(3 2.02191e-15 0)
(3 1.34706e-15 0)
(3 7.43849e-16 0)
(3 4.65488e-16 0)
(3 5.71364e-16 0)
(3 7.23641e-16 0)
(3 1.02681e-15 0)
(3 1.40014e-15 0)
(3 6.29262e-16 0)
(3 -6.59321e-16 0)
(3 -5.9156e-16 0)
(3 2.18038e-16 0)
(3 1.12551e-16 0)
(3 -4.97647e-16 0)
(3 -1.64888e-15 0)
(3 -3.64436e-15 0)
(3 -4.10041e-15 0)
(3 -3.88216e-15 0)
(3 -2.65557e-15 0)
(3 -2.2813e-15 0)
(3 -2.37655e-15 0)
(3 -2.70573e-15 0)
(3 -2.38142e-15 0)
(3 -2.03145e-15 0)
(3 -1.34357e-15 0)
(3 -4.85e-17 0)
(3 3.00642e-16 0)
(3 3.43373e-16 0)
(3 3.86727e-16 0)
(3 5.2221e-16 0)
(3 4.67039e-16 0)
(3 -1.28287e-16 0)
(3 -5.97666e-16 0)
(3 -4.13333e-16 0)
(3 3.02753e-16 0)
(3 4.02694e-16 0)
(3 5.48927e-16 0)
(3 5.60804e-16 0)
(3 1.01895e-15 0)
(3 1.2703e-15 0)
(3 1.06197e-15 0)
(3 4.07358e-16 0)
(3 -5.67442e-16 0)
(3 -5.15375e-16 0)
(3 -1.14582e-16 0)
(3 1.45089e-16 0)
(3 -8.10322e-16 0)
(3 -9.73403e-16 0)
(3 8.90576e-17 0)
(3 1.21448e-16 0)
(3 -3.25044e-16 0)
(3 -6.46255e-16 0)
(3 -5.38037e-16 0)
(3 1.35578e-16 0)
(3 2.27853e-16 0)
(3 -6.04474e-16 0)
(3 -1.06288e-15 0)
(3 -1.07732e-15 0)
(3 -7.27913e-16 0)
(3 1.8107e-16 0)
(3 1.80458e-15 0)
(3 1.38505e-15 0)
(3 2.85273e-16 0)
(3 -1.73312e-16 0)
(3 -3.20534e-16 0)
(3 5.01643e-17 0)
(3 9.50183e-16 0)
(3 1.1384e-15 0)
(3 -3.43953e-16 0)
(3 -1.13901e-15 0)
(3 -1.179e-15 0)
(3 -3.44492e-16 0)
(3 -6.45703e-16 0)
(3 -1.41514e-15 0)
(3 -1.54761e-15 0)
(3 -1.78088e-15 0)
(3 -1.94943e-15 0)
(3 -9.42241e-16 0)
(3 7.86167e-16 0)
(3 2.08168e-15 0)
(3 1.70022e-15 0)
(3 1.35276e-15 0)
(3 -4.26337e-16 0)
(3 -4.11496e-16 0)
(3 -2.98103e-16 0)
(3 -4.9866e-17 0)
(3 -2.72575e-16 0)
(3 -2.94121e-16 0)
(3 -7.47647e-17 0)
(3 5.21945e-16 0)
(3 4.92159e-16 0)
(3 -3.18543e-16 0)
(3 -3.87563e-16 0)
(3 -1.37385e-16 0)
(3 1.08269e-15 0)
(3 1.32866e-15 0)
(3 1.4604e-15 0)
(3 1.48874e-15 0)
(3 1.44173e-15 0)
(3 1.11891e-15 0)
(3 1.2601e-15 0)
(3 1.6323e-15 0)
(3 1.59427e-15 0)
(3 1.53953e-15 0)
(3 1.67756e-15 0)
(3 9.64015e-16 0)
(3 1.88107e-16 0)
(3 -6.47026e-16 0)
(3 -1.20463e-15 0)
(3 -1.59272e-15 0)
(3 -2.1789e-15 0)
(3 -2.57854e-15 0)
(3 -2.58524e-15 0)
(3 -1.47102e-15 0)
(3 -1.06254e-15 0)
(3 -8.74971e-16 0)
(3 -6.11633e-16 0)
(3 -1.05817e-15 0)
(3 -1.83459e-15 0)
(3 -1.60001e-15 0)
(3 -3.25873e-16 0)
(3 8.2476e-17 0)
(3 5.11599e-16 0)
(3 7.819e-16 0)
(3 1.02136e-15 0)
(3 7.78704e-16 0)
(3 3.14355e-16 0)
(3 -4.44606e-17 0)
(3 -6.19183e-16 0)
(3 -8.36024e-16 0)
(3 -7.74122e-16 0)
(3 -2.87978e-16 0)
(3 -3.53429e-16 0)
(3 1.08877e-16 0)
(3 7.22236e-16 0)
(3 5.25206e-16 0)
(3 5.12506e-16 0)
(3 2.85006e-16 0)
(3 2.52583e-16 0)
(3 1.57732e-16 0)
(3 2.76422e-16 0)
(3 3.5487e-16 0)
(3 6.54587e-16 0)
(3 5.56029e-16 0)
(3 4.37986e-16 0)
(3 6.21396e-16 0)
(3 2.49416e-16 0)
(3 -6.95378e-16 0)
(3 -1.30418e-15 0)
(3 -9.8836e-16 0)
(3 -4.32875e-16 0)
(3 -8.06302e-16 0)
(3 -8.66488e-16 0)
(3 -1.13936e-15 0)
(3 -3.15692e-16 0)
(3 1.41679e-15 0)
(3 2.32542e-15 0)
(3 2.13084e-15 0)
(3 2.03392e-15 0)
(3 1.52595e-15 0)
(3 6.80405e-16 0)
(3 1.557e-16 0)
(3 5.33887e-17 0)
(3 7.17011e-16 0)
(3 3.41204e-16 0)
(3 -1.1285e-15 0)
(3 -1.23229e-15 0)
(3 -7.49647e-16 0)
(3 -2.1225e-16 0)
(3 -1.67598e-16 0)
(3 -4.72005e-16 0)
(3 -2.80014e-16 0)
(3 -1.62969e-16 0)
(3 4.17866e-16 0)
(3 1.6357e-15 0)
(3 1.59468e-15 0)
(3 1.3101e-15 0)
(3 7.02845e-16 0)
(3 -2.19049e-16 0)
(3 -8.47474e-16 0)
(3 1.5988e-17 0)
(3 4.76662e-16 0)
(3 4.92567e-16 0)
(3 1.1309e-15 0)
(3 7.26766e-16 0)
(3 -2.64146e-17 0)
(3 4.86112e-16 0)
(3 8.62189e-16 0)
(3 8.35151e-16 0)
(3 5.3473e-16 0)
(3 5.40739e-16 0)
(3 5.80757e-16 0)
(3 2.22094e-16 0)
(3 1.09211e-15 0)
(3 2.2759e-15 0)
(3 2.90135e-15 0)
(3 1.96608e-15 0)
(3 1.68591e-15 0)
(3 1.37266e-15 0)
(3 7.98863e-16 0)
(3 7.94354e-16 0)
(3 5.87448e-16 0)
(3 -9.50024e-17 0)
(3 -5.71776e-16 0)
(3 -1.01497e-15 0)
(3 -7.6222e-16 0)
(3 -6.8202e-16 0)
(3 3.3681e-16 0)
(3 6.83872e-16 0)
(3 2.67383e-16 0)
(3 -5.27764e-16 0)
(3 -7.02284e-16 0)
(3 -1.16233e-15 0)
(3 -3.9405e-16 0)
(3 2.01295e-16 0)
(3 3.55872e-17 0)
(3 -1.0402e-15 0)
(3 5.74152e-17 0)
(3 -1.30021e-16 0)
(3 2.48589e-17 0)
(3 5.84596e-16 0)
(3 2.13143e-16 0)
(3 -4.29856e-16 0)
(3 -7.35554e-16 0)
(3 -9.32783e-16 0)
(3 -1.05959e-15 0)
(3 -1.1239e-15 0)
(3 -5.27867e-16 0)
(3 1.86362e-16 0)
(3 4.11483e-16 0)
(3 6.06944e-16 0)
(3 5.38863e-16 0)
(3 6.83793e-16 0)
(3 7.89478e-16 0)
(3 9.65673e-16 0)
(3 8.86323e-16 0)
(3 4.77761e-16 0)
(3 6.26211e-16 0)
(3 1.80227e-15 0)
(3 2.35854e-15 0)
(3 1.9496e-15 0)
(3 1.55162e-15 0)
(3 -2.66442e-16 0)
(3 -5.33872e-16 0)
(3 -1.01355e-15 0)
(3 -1.19577e-15 0)
(3 -1.47329e-15 0)
(3 -8.13175e-16 0)
(3 -3.04072e-17 0)
(3 2.90443e-16 0)
(3 1.06289e-15 0)
(3 1.68931e-15 0)
(3 1.37665e-15 0)
(3 4.43297e-16 0)
(3 4.92842e-16 0)
(3 6.85244e-16 0)
(3 1.50389e-15 0)
(3 1.27794e-15 0)
(3 1.19627e-15 0)
(3 -5.9281e-17 0)
(3 -4.37108e-16 0)
(3 3.70446e-17 0)
(3 1.12302e-15 0)
(3 1.44959e-15 0)
(3 2.54727e-15 0)
(3 3.07247e-15 0)
(3 2.21618e-15 0)
(3 1.78098e-15 0)
(3 5.92362e-16 0)
(3 6.02458e-17 0)
(3 3.99752e-16 0)
(3 4.55025e-16 0)
(3 2.88713e-17 0)
(3 -4.32381e-17 0)
(3 4.55829e-16 0)
(3 8.1853e-16 0)
(3 2.0858e-15 0)
(3 2.16208e-15 0)
(3 2.11217e-15 0)
(3 1.65248e-15 0)
(3 1.90637e-15 0)
(3 1.71288e-15 0)
(3 1.95526e-15 0)
(3 2.96071e-15 0)
(3 3.41491e-15 0)
(3 2.63413e-15 0)
(3 1.29202e-15 0)
(3 2.68733e-16 0)
(3 4.25176e-16 0)
(3 1.12702e-15 0)
(3 2.55358e-15 0)
(3 2.97734e-15 0)
(3 2.59839e-15 0)
(3 1.7397e-15 0)
(3 9.3502e-16 0)
(3 3.34199e-17 0)
(3 -1.67908e-16 0)
(3 -1.4388e-16 0)
(3 -3.36893e-16 0)
(3 -3.2344e-16 0)
(3 -2.10864e-16 0)
(3 3.50323e-16 0)
(3 1.63631e-15 0)
(3 1.55688e-15 0)
(3 1.33437e-15 0)
(3 1.27148e-15 0)
(3 1.30187e-15 0)
(3 9.47207e-16 0)
(3 -1.00052e-16 0)
(3 -7.28498e-16 0)
(3 -4.23522e-16 0)
(3 -9.30176e-16 0)
(3 -1.13359e-15 0)
(3 -1.30999e-16 0)
(3 -1.10487e-16 0)
(3 -3.76645e-16 0)
(3 -2.97291e-16 0)
(3 -3.83315e-16 0)
(3 -6.44121e-16 0)
(3 -1.1555e-15 0)
(3 -1.79975e-15 0)
(3 -1.79866e-15 0)
(3 -1.53292e-15 0)
(3 -9.97132e-16 0)
(3 4.0282e-16 0)
(3 9.62233e-16 0)
(3 9.96244e-16 0)
(3 8.7582e-16 0)
(3 4.13797e-16 0)
(3 2.96839e-16 0)
(3 1.57493e-16 0)
(3 -1.62634e-17 0)
(3 1.61724e-16 0)
(3 3.05632e-16 0)
(3 2.04975e-16 0)
(3 5.69191e-16 0)
(3 8.26308e-16 0)
(3 2.80152e-16 0)
(3 -2.98898e-17 0)
(3 2.94998e-16 0)
(3 2.59961e-16 0)
(3 -9.96983e-17 0)
(3 -1.30097e-15 0)
(3 -1.28531e-15 0)
(3 -6.9028e-16 0)
(3 4.38421e-16 0)
(3 1.25313e-15 0)
(3 1.24209e-15 0)
(3 2.33895e-16 0)
(3 -4.70983e-16 0)
(3 -4.09752e-16 0)
(3 -2.85948e-17 0)
(3 1.63704e-15 0)
(3 1.7671e-15 0)
(3 6.96641e-16 0)
(3 -4.16807e-16 0)
(3 -5.69238e-16 0)
(3 1.00809e-15 0)
(3 1.46098e-15 0)
(3 1.37325e-15 0)
(3 1.57226e-15 0)
(3 2.18884e-15 0)
(3 1.30794e-15 0)
(3 4.80809e-16 0)
(3 6.20657e-16 0)
(3 5.22334e-16 0)
(3 -8.29235e-16 0)