/*--------------------------------*- C++ -*----------------------------------*\
  =========                 |
  \\      /  F ield         | OpenFOAM: The Open Source CFD Toolbox
   \\    /   O peration     | Website:  https://openfoam.org
    \\  /    A nd           | Version:  7
     \\/     M anipulation  |
\*---------------------------------------------------------------------------*/
FoamFile
{
    version     2.0;
    format      ascii;
    class       volVectorField;
    location    "1.1";
    object      U;
}
// * * * * * * * * * * * * * * * * * * * * * * * * * * * * * * * * * * * * * //

dimensions      [0 1 -1 0 0 0 0];

internalField   nonuniform List<vector> 
73728
(
(3 -5.57371e-17 0)
(3 1.04087e-16 0)
(3 3.66721e-16 0)
(3 5.42397e-18 0)
(3 -3.25523e-17 0)
(3 -3.07037e-16 0)
(3 -3.28519e-16 0)
(3 -3.27782e-16 0)
(3 -4.00126e-16 0)
(3 -3.08039e-16 0)
(3 6.07991e-17 0)
(3 3.70761e-16 0)
(3 6.64956e-16 0)
(3 8.00111e-16 0)
(3 1.33473e-15 0)
(3 1.94153e-15 0)
(3 1.50737e-15 0)
(3 1.20939e-15 0)
(3 8.34815e-16 0)
(3 1.8613e-16 0)
(3 -2.42511e-16 0)
(3 -5.40103e-16 0)
(3 9.65169e-17 0)
(3 5.65638e-16 0)
(3 2.00434e-15 0)
(3 3.40354e-15 0)
(3 8.19104e-16 0)
(3 -1.68443e-16 0)
(3 -4.32559e-17 0)
(3 1.04733e-16 0)
(3 4.75735e-16 0)
(3 2.02737e-16 0)
(3 9.41466e-16 0)
(3 1.50441e-15 0)
(3 2.1796e-15 0)
(3 2.30386e-15 0)
(3 1.67836e-15 0)
(3 5.35507e-16 0)
(3 -1.43265e-15 0)
(3 -2.37554e-15 0)
(3 -2.21404e-15 0)
(3 -6.94437e-16 0)
(3 -1.61303e-16 0)
(3 -8.93061e-17 0)
(3 -5.55853e-16 0)
(3 -1.68671e-15 0)
(3 -1.11219e-15 0)
(3 3.58229e-16 0)
(3 1.07394e-15 0)
(3 1.98104e-15 0)
(3 1.87757e-15 0)
(3 1.05064e-15 0)
(3 6.57222e-16 0)
(3 1.20403e-15 0)
(3 9.67824e-16 0)
(3 3.71066e-16 0)
(3 4.53782e-16 0)
(3 5.82301e-16 0)
(3 5.78648e-16 0)
(3 1.18023e-15 0)
(3 5.61455e-16 0)
(3 -2.98138e-16 0)
(3 -1.42883e-15 0)
(3 -1.57406e-15 0)
(3 -1.61256e-15 0)
(3 -2.09957e-15 0)
(3 -2.30675e-15 0)
(3 -1.74706e-15 0)
(3 -6.89503e-16 0)
(3 -7.45976e-16 0)
(3 -1.02528e-15 0)
(3 -9.60343e-16 0)
(3 -7.58211e-16 0)
(3 -5.92359e-16 0)
(3 -2.1519e-16 0)
(3 -1.15736e-16 0)
(3 4.50477e-16 0)
(3 1.00046e-15 0)
(3 1.01549e-15 0)
(3 5.49804e-16 0)
(3 -2.94219e-16 0)
(3 -4.69048e-16 0)
(3 -1.11594e-16 0)
(3 -6.14117e-17 0)
(3 -9.24723e-17 0)
(3 -2.31608e-16 0)
(3 -4.25963e-16 0)
(3 -6.38172e-16 0)
(3 -1.09189e-15 0)
(3 -2.48532e-16 0)
(3 3.34938e-16 0)
(3 7.75345e-16 0)
(3 1.48662e-15 0)
(3 8.71935e-16 0)
(3 1.64789e-15 0)
(3 1.08942e-15 0)
(3 -6.16793e-17 0)
(3 2.57673e-16 0)
(3 2.35321e-16 0)
(3 1.78976e-16 0)
(3 8.05697e-17 0)
(3 -2.24972e-16 0)
(3 -4.17329e-16 0)
(3 -7.34399e-16 0)
(3 -5.77147e-16 0)
(3 -4.2826e-17 0)
(3 7.41903e-16 0)
(3 1.07331e-15 0)
(3 8.29212e-16 0)
(3 1.059e-15 0)
(3 1.17231e-15 0)
(3 1.6432e-15 0)
(3 2.17359e-15 0)
(3 2.15731e-15 0)
(3 1.07446e-15 0)
(3 -4.77562e-16 0)
(3 -1.34871e-15 0)
(3 -1.20935e-15 0)
(3 -5.86659e-17 0)
(3 1.16685e-15 0)
(3 2.81187e-15 0)
(3 3.88064e-15 0)
(3 2.26215e-15 0)
(3 1.51002e-15 0)
(3 1.18662e-15 0)
(3 1.19145e-15 0)
(3 1.31696e-15 0)
(3 1.53487e-15 0)
(3 7.97741e-16 0)
(3 -9.59772e-17 0)
(3 2.00394e-16 0)
(3 2.23047e-16 0)
(3 1.84795e-16 0)
(3 -7.92119e-16 0)
(3 -3.62047e-15 0)
(3 -5.10404e-15 0)
(3 -3.75821e-15 0)
(3 -1.66915e-15 0)
(3 -6.99561e-17 0)
(3 7.69941e-17 0)
(3 -1.04382e-16 0)
(3 -1.48659e-15 0)
(3 -2.0137e-15 0)
(3 7.33703e-16 0)
(3 2.09926e-15 0)
(3 3.33787e-15 0)
(3 2.59807e-15 0)
(3 1.07993e-15 0)
(3 -7.59646e-16 0)
(3 -1.72579e-16 0)
(3 -7.3909e-17 0)
(3 6.5427e-16 0)
(3 1.47745e-15 0)
(3 2.38631e-15 0)
(3 3.13048e-15 0)
(3 3.23248e-15 0)
(3 2.46633e-15 0)
(3 7.58679e-16 0)
(3 -1.59492e-16 0)
(3 -8.49407e-16 0)
(3 -1.16419e-15 0)
(3 -1.44508e-15 0)
(3 -2.78989e-16 0)
(3 6.87951e-16 0)
(3 1.356e-15 0)
(3 2.56463e-18 0)
(3 -7.49653e-16 0)
(3 -1.98372e-16 0)
(3 7.26214e-16 0)
(3 1.47305e-16 0)
(3 -2.87744e-16 0)
(3 -5.3609e-16 0)
(3 -5.43192e-16 0)
(3 1.75518e-16 0)
(3 1.13635e-15 0)
(3 1.20962e-16 0)
(3 -2.02695e-15 0)
(3 -1.87825e-15 0)
(3 -1.12173e-15 0)
(3 -5.35903e-16 0)
(3 -4.21957e-16 0)
(3 -4.57852e-16 0)
(3 -4.58949e-16 0)
(3 -2.16597e-16 0)
(3 -3.26019e-16 0)
(3 2.21354e-16 0)
(3 3.37009e-16 0)
(3 3.92538e-16 0)
(3 1.66556e-15 0)
(3 1.94565e-15 0)
(3 1.38365e-15 0)
(3 9.78023e-16 0)
(3 -1.49558e-18 0)
(3 -5.25047e-17 0)
(3 -1.38285e-16 0)
(3 1.8502e-16 0)
(3 3.85771e-16 0)
(3 6.00518e-16 0)
(3 3.52357e-16 0)
(3 3.10593e-16 0)
(3 7.41336e-16 0)
(3 1.11957e-15 0)
(3 8.70514e-16 0)
(3 5.34484e-16 0)
(3 2.64179e-16 0)
(3 4.2031e-16 0)
(3 4.43208e-16 0)
(3 7.28648e-16 0)
(3 9.53181e-16 0)
(3 9.11401e-16 0)
(3 1.11698e-15 0)
(3 6.02135e-16 0)
(3 -4.76813e-17 0)
(3 -5.01589e-16 0)
(3 -3.96679e-16 0)
(3 4.69661e-16 0)
(3 2.21087e-15 0)
(3 2.4827e-15 0)
(3 2.64098e-15 0)
(3 2.7108e-15 0)
(3 1.78346e-15 0)
(3 1.71944e-15 0)
(3 1.08285e-15 0)
(3 1.89162e-16 0)
(3 -7.83406e-16 0)
(3 -1.14265e-15 0)
(3 -2.02183e-15 0)
(3 -3.03625e-15 0)
(3 -3.50794e-15 0)
(3 -3.24178e-15 0)
(3 -3.17109e-15 0)
(3 -2.32868e-15 0)
(3 -9.95381e-16 0)
(3 -6.18065e-16 0)
(3 -5.36373e-16 0)
(3 -5.98402e-16 0)
(3 -9.41709e-16 0)
(3 -7.54963e-16 0)
(3 -2.52494e-16 0)
(3 1.72309e-15 0)
(3 2.09425e-15 0)
(3 1.74508e-15 0)
(3 1.16602e-15 0)
(3 5.50548e-16 0)
(3 -1.23019e-15 0)
(3 -1.97681e-15 0)
(3 -1.22387e-15 0)
(3 1.39673e-15 0)
(3 1.52826e-15 0)
(3 1.4719e-15 0)
(3 1.50246e-15 0)
(3 1.24898e-15 0)
(3 5.89357e-16 0)
(3 2.73818e-18 0)
(3 -3.08753e-16 0)
(3 -2.24686e-16 0)
(3 1.70969e-16 0)
(3 -6.25693e-16 0)
(3 -1.30774e-15 0)
(3 -1.44613e-15 0)
(3 -2.43416e-15 0)
(3 -3.03997e-15 0)
(3 -3.05849e-15 0)
(3 -2.52e-15 0)
(3 -1.14379e-15 0)
(3 -1.23374e-15 0)
(3 -2.05479e-15 0)
(3 -2.26564e-15 0)
(3 -2.57372e-15 0)
(3 -2.678e-15 0)
(3 -1.87797e-15 0)
(3 -8.55345e-16 0)
(3 -1.80302e-15 0)
(3 -1.93658e-15 0)
(3 -1.9759e-15 0)
(3 -2.10716e-15 0)
(3 -1.59301e-15 0)
(3 -1.92607e-16 0)
(3 2.46184e-16 0)
(3 5.53304e-16 0)
(3 4.49206e-16 0)
(3 2.36358e-16 0)
(3 4.76881e-16 0)
(3 3.85612e-16 0)
(3 7.35155e-16 0)
(3 8.8098e-16 0)
(3 1.83127e-16 0)
(3 -5.73952e-16 0)
(3 1.42065e-17 0)
(3 -2.01688e-16 0)
(3 -4.55246e-17 0)
(3 1.23226e-16 0)
(3 2.12598e-16 0)
(3 2.80797e-16 0)
(3 3.57508e-16 0)
(3 1.7116e-16 0)
(3 5.25321e-16 0)
(3 6.87409e-16 0)
(3 6.96352e-16 0)
(3 6.2893e-16 0)
(3 8.57361e-16 0)
(3 5.85902e-16 0)
(3 5.6538e-16 0)
(3 1.31736e-15 0)
(3 1.65731e-15 0)
(3 1.72078e-15 0)
(3 1.79482e-15 0)
(3 1.00032e-15 0)
(3 6.43841e-16 0)
(3 -2.78424e-16 0)
(3 -8.17624e-16 0)
(3 2.32864e-16 0)
(3 1.00841e-15 0)
(3 2.29969e-15 0)
(3 3.20253e-15 0)
(3 2.97373e-15 0)
(3 2.69255e-15 0)
(3 1.63333e-15 0)
(3 9.03532e-17 0)
(3 -1.53612e-16 0)
(3 -9.10459e-16 0)
(3 -8.7142e-16 0)
(3 -1.02609e-15 0)
(3 -1.57203e-15 0)
(3 -2.02801e-15 0)
(3 -2.18876e-15 0)
(3 -1.40308e-15 0)
(3 -1.29537e-15 0)
(3 -7.80002e-16 0)
(3 3.24418e-16 0)
(3 5.1818e-16 0)
(3 3.11113e-16 0)
(3 -1.04097e-15 0)
(3 -1.94242e-15 0)
(3 -4.27949e-16 0)
(3 1.1144e-15 0)
(3 9.44538e-16 0)
(3 7.52237e-16 0)
(3 1.14408e-15 0)
(3 8.26084e-16 0)
(3 3.19278e-16 0)
(3 -2.52374e-16 0)
(3 1.39244e-15 0)
(3 1.0518e-15 0)
(3 1.11574e-15 0)
(3 9.36103e-16 0)
(3 1.20407e-15 0)
(3 7.37811e-16 0)
(3 9.32335e-17 0)
(3 -6.18941e-16 0)
(3 -1.10464e-15 0)
(3 -7.36156e-16 0)
(3 -1.63466e-16 0)
(3 -1.4205e-15 0)
(3 -2.45667e-15 0)
(3 -3.00201e-15 0)
(3 -3.50615e-15 0)
(3 -4.04196e-15 0)
(3 -4.43548e-15 0)
(3 -4.93817e-15 0)
(3 -5.20013e-15 0)
(3 -3.96919e-15 0)
(3 -3.50241e-15 0)
(3 -2.99227e-15 0)
(3 -2.27349e-15 0)
(3 -2.57278e-15 0)
(3 -3.59372e-15 0)
(3 -2.40099e-15 0)
(3 -6.5577e-16 0)
(3 -4.29785e-16 0)
(3 -5.23591e-16 0)
(3 -3.06214e-16 0)
(3 -2.16332e-16 0)
(3 5.35597e-16 0)
(3 1.46978e-15 0)
(3 1.6443e-15 0)
(3 1.12247e-15 0)
(3 9.62012e-16 0)
(3 1.35981e-15 0)
(3 1.12028e-15 0)
(3 3.53548e-16 0)
(3 -7.97808e-16 0)
(3 -3.74373e-16 0)
(3 -4.41119e-16 0)
(3 -1.37913e-16 0)
(3 -3.04108e-16 0)
(3 -2.08454e-16 0)
(3 1.50161e-16 0)
(3 -2.49025e-16 0)
(3 -5.3614e-16 0)
(3 -4.24862e-16 0)
(3 -3.47501e-16 0)
(3 1.14923e-16 0)
(3 3.71701e-16 0)
(3 7.86351e-16 0)
(3 8.10067e-16 0)
(3 8.21501e-16 0)
(3 7.47924e-16 0)
(3 7.53629e-16 0)
(3 7.55226e-16 0)
(3 1.4764e-15 0)
(3 2.36497e-15 0)
(3 2.46554e-15 0)
(3 1.77245e-15 0)
(3 6.14434e-16 0)
(3 5.23151e-16 0)
(3 4.33595e-16 0)
(3 4.40505e-16 0)
(3 2.58468e-16 0)
(3 1.21782e-15 0)
(3 2.94515e-15 0)
(3 3.40014e-15 0)
(3 3.37886e-15 0)
(3 3.00788e-15 0)
(3 2.26071e-15 0)
(3 -8.86162e-17 0)
(3 -8.01744e-16 0)
(3 -6.50251e-16 0)
(3 -1.90156e-16 0)
(3 -2.82613e-16 0)
(3 -5.9361e-16 0)
(3 -2.1505e-16 0)
(3 1.20073e-15 0)
(3 -2.84496e-16 0)
(3 -1.02873e-15 0)
(3 3.69407e-16 0)
(3 6.00484e-16 0)
(3 4.72179e-16 0)
(3 -7.41636e-16 0)
(3 -1.64251e-15 0)
(3 -2.23027e-15 0)
(3 -2.39176e-15 0)
(3 -2.34641e-15 0)
(3 -9.19969e-16 0)
(3 -4.85302e-16 0)
(3 -9.57154e-17 0)
(3 1.19506e-16 0)
(3 -1.83299e-16 0)
(3 1.62769e-16 0)
(3 1.09218e-15 0)
(3 1.92066e-15 0)
(3 1.71625e-15 0)
(3 1.5293e-15 0)
(3 1.38456e-15 0)
(3 7.93095e-16 0)
(3 1.57655e-16 0)
(3 -7.49366e-17 0)
(3 -1.47954e-16 0)
(3 5.10595e-17 0)
(3 -1.34639e-15 0)
(3 -1.79042e-15 0)
(3 -2.02255e-15 0)
(3 -1.36275e-15 0)
(3 -1.72673e-15 0)
(3 -3.46778e-15 0)
(3 -6.14422e-15 0)
(3 -6.52505e-15 0)
(3 -5.01877e-15 0)
(3 -2.26999e-15 0)
(3 -2.35255e-15 0)
(3 -2.8034e-15 0)
(3 -3.20084e-15 0)
(3 -3.63155e-15 0)
(3 -2.66855e-15 0)
(3 -1.57704e-15 0)
(3 -1.46208e-15 0)
(3 -8.56977e-16 0)
(3 1.5171e-16 0)
(3 -3.99403e-16 0)
(3 -7.55191e-16 0)
(3 7.13095e-16 0)
(3 2.06613e-15 0)
(3 2.45763e-15 0)
(3 2.65222e-15 0)
(3 2.52503e-15 0)
(3 2.17366e-15 0)
(3 7.51638e-16 0)
(3 -1.06341e-15 0)
(3 7.15143e-16 0)
(3 2.20266e-15 0)
(3 -2.58779e-16 0)
(3 -6.13302e-16 0)
(3 -3.06894e-16 0)
(3 1.9618e-18 0)
(3 7.34692e-17 0)
(3 2.37758e-16 0)
(3 1.11511e-16 0)
(3 6.902e-16 0)
(3 8.01856e-16 0)
(3 4.7235e-16 0)
(3 3.72578e-17 0)
(3 -4.61292e-16 0)
(3 -6.03949e-16 0)
(3 -1.11907e-16 0)
(3 1.97833e-16 0)
(3 1.53829e-16 0)
(3 3.11632e-16 0)
(3 9.89823e-16 0)
(3 1.05256e-15 0)
(3 1.326e-15 0)
(3 1.40174e-15 0)
(3 1.36649e-15 0)
(3 1.16589e-15 0)
(3 -1.7239e-16 0)
(3 -4.00331e-16 0)
(3 1.40939e-15 0)
(3 1.99934e-15 0)
(3 2.26809e-15 0)
(3 1.56693e-15 0)
(3 1.31372e-15 0)
(3 1.47614e-15 0)
(3 8.46059e-16 0)
(3 -4.56842e-17 0)
(3 -1.27438e-16 0)
(3 1.60743e-16 0)
(3 -6.88615e-17 0)
(3 -7.28132e-17 0)
(3 4.2443e-16 0)
(3 1.00309e-15 0)
(3 6.51034e-16 0)
(3 7.37127e-16 0)
(3 6.56879e-16 0)
(3 -9.1327e-16 0)
(3 -1.06304e-15 0)
(3 -1.64922e-15 0)
(3 -2.13313e-15 0)
(3 -2.85098e-15 0)
(3 -3.4113e-15 0)
(3 -3.19053e-15 0)
(3 -2.26324e-15 0)
(3 -2.15722e-15 0)
(3 -2.07444e-15 0)
(3 -2.17119e-15 0)
(3 -1.47921e-15 0)
(3 2.18473e-16 0)
(3 4.94233e-16 0)
(3 2.7842e-16 0)
(3 -5.55955e-18 0)
(3 -1.57061e-16 0)
(3 -5.7922e-16 0)
(3 -4.20484e-16 0)
(3 -7.27824e-16 0)
(3 -1.13972e-15 0)
(3 -1.944e-15 0)
(3 -2.69241e-15 0)
(3 -2.59587e-15 0)
(3 -2.60036e-15 0)
(3 -2.57311e-15 0)
(3 -2.4692e-15 0)
(3 -2.41472e-15 0)
(3 -2.71946e-15 0)
(3 -4.22707e-15 0)
(3 -5.0385e-15 0)
(3 -5.34027e-15 0)
(3 -3.81199e-15 0)
(3 -3.18584e-15 0)
(3 -3.11089e-15 0)
(3 -2.87773e-15 0)
(3 -2.00999e-15 0)
(3 -1.298e-18 0)
(3 2.58116e-16 0)
(3 1.02919e-16 0)
(3 -7.20948e-16 0)
(3 -2.14135e-15 0)
(3 -2.02921e-15 0)
(3 -1.9846e-15 0)
(3 -1.6945e-15 0)
(3 -1.02848e-15 0)
(3 8.87952e-16 0)
(3 2.638e-15 0)
(3 2.61872e-15 0)
(3 2.44434e-15 0)
(3 1.88489e-15 0)
(3 5.71802e-16 0)
(3 1.46993e-15 0)
(3 2.04074e-15 0)
(3 7.54925e-17 0)
(3 2.69953e-16 0)
(3 3.10109e-16 0)
(3 2.60522e-16 0)
(3 1.12928e-16 0)
(3 6.01504e-17 0)
(3 3.77148e-16 0)
(3 2.19072e-16 0)
(3 2.71204e-17 0)
(3 -7.39182e-17 0)
(3 1.08237e-16 0)
(3 -2.18243e-16 0)
(3 -8.7741e-16 0)
(3 -8.34803e-16 0)
(3 -3.58199e-16 0)
(3 2.61238e-16 0)
(3 3.95341e-16 0)
(3 5.13154e-16 0)
(3 7.43033e-16 0)
(3 1.01191e-15 0)
(3 1.13093e-15 0)
(3 4.01427e-16 0)
(3 -1.10643e-16 0)
(3 -5.47843e-16 0)
(3 8.7749e-16 0)
(3 1.60975e-15 0)
(3 1.52424e-15 0)
(3 1.32799e-15 0)
(3 2.68472e-16 0)
(3 -1.09795e-15 0)
(3 7.11255e-17 0)
(3 1.41282e-15 0)
(3 3.57519e-16 0)
(3 -1.94305e-16 0)
(3 4.23617e-16 0)
(3 2.66688e-16 0)
(3 4.94775e-16 0)
(3 4.31467e-16 0)
(3 6.72378e-17 0)
(3 2.22644e-15 0)
(3 3.45459e-15 0)
(3 2.77046e-15 0)
(3 -2.75329e-16 0)
(3 -8.48705e-16 0)
(3 -1.48291e-15 0)
(3 -1.89198e-15 0)
(3 -2.2706e-15 0)
(3 -2.4319e-15 0)
(3 -2.11621e-15 0)
(3 -2.32468e-15 0)
(3 -2.01735e-15 0)
(3 -1.96655e-15 0)
(3 -2.27826e-15 0)
(3 -6.26955e-16 0)
(3 1.39225e-15 0)
(3 7.13927e-16 0)
(3 -7.39313e-16 0)
(3 -2.30807e-15 0)
(3 -2.70629e-15 0)
(3 -2.51858e-15 0)
(3 -2.17228e-15 0)
(3 -1.63441e-15 0)
(3 -2.56482e-15 0)
(3 -3.24811e-15 0)
(3 -4.59829e-15 0)
(3 -6.06001e-15 0)
(3 -5.83036e-15 0)
(3 -4.08562e-15 0)
(3 -3.65388e-15 0)
(3 -3.67606e-15 0)
(3 -2.83465e-15 0)
(3 -2.96893e-15 0)
(3 -4.1781e-15 0)
(3 -4.60354e-15 0)
(3 -4.61533e-15 0)
(3 -4.15203e-15 0)
(3 -3.25216e-15 0)
(3 -2.54786e-15 0)
(3 -1.23787e-15 0)
(3 2.30197e-16 0)
(3 -1.88336e-16 0)
(3 -6.84019e-16 0)
(3 -1.54238e-15 0)
(3 -3.21143e-15 0)
(3 -3.33096e-15 0)
(3 -3.23176e-15 0)
(3 -3.44385e-15 0)
(3 -3.09508e-15 0)
(3 -1.37403e-15 0)
(3 9.52532e-17 0)
(3 4.92169e-16 0)
(3 9.94167e-16 0)
(3 1.45914e-15 0)
(3 1.38661e-15 0)
(3 7.69905e-16 0)
(3 -3.30426e-16 0)
(3 1.70179e-16 0)
(3 7.69999e-16 0)
(3 6.02571e-16 0)
(3 -1.49345e-16 0)
(3 -5.35259e-16 0)
(3 -5.75641e-16 0)
(3 -6.11569e-16 0)
(3 -5.17566e-16 0)
(3 -8.46131e-16 0)
(3 -8.35706e-16 0)
(3 -3.18742e-16 0)
(3 5.37196e-17 0)
(3 1.75551e-17 0)
(3 -1.75298e-16 0)
(3 1.40619e-16 0)
(3 5.52384e-16 0)
(3 4.04165e-16 0)
(3 -5.15444e-17 0)
(3 5.78015e-16 0)
(3 7.52063e-16 0)
(3 8.69437e-16 0)
(3 1.04885e-15 0)
(3 6.83687e-16 0)
(3 1.1799e-15 0)
(3 1.47509e-15 0)
(3 1.37554e-15 0)
(3 7.00402e-16 0)
(3 -3.54542e-16 0)
(3 7.85193e-17 0)
(3 4.68274e-16 0)
(3 2.61381e-16 0)
(3 3.98202e-16 0)
(3 7.02275e-16 0)
(3 6.62029e-16 0)
(3 3.75126e-16 0)
(3 1.38618e-15 0)
(3 1.37982e-15 0)
(3 1.43629e-15 0)
(3 1.38205e-15 0)
(3 3.75152e-15 0)
(3 5.64509e-15 0)
(3 4.48536e-15 0)
(3 2.26873e-15 0)
(3 1.29954e-15 0)
(3 2.57922e-16 0)
(3 -8.83798e-16 0)
(3 -9.68445e-16 0)
(3 -1.4849e-15 0)
(3 -2.33213e-15 0)
(3 -2.25774e-15 0)
(3 -1.99847e-15 0)
(3 -8.91876e-16 0)
(3 5.93607e-16 0)
(3 1.85722e-15 0)
(3 1.79544e-15 0)
(3 1.27462e-15 0)
(3 8.05938e-16 0)
(3 3.88239e-16 0)
(3 -3.96815e-16 0)
(3 -5.77907e-16 0)
(3 -4.79999e-16 0)
(3 -6.50098e-16 0)
(3 -1.50886e-15 0)
(3 -2.48651e-15 0)
(3 -3.58873e-15 0)
(3 -3.83233e-15 0)
(3 -3.59463e-15 0)
(3 -1.44489e-15 0)
(3 -8.04327e-16 0)
(3 -5.15349e-16 0)
(3 -1.83308e-15 0)
(3 -3.93755e-15 0)
(3 -3.91619e-15 0)
(3 -2.79708e-15 0)
(3 -2.42267e-15 0)
(3 -1.59386e-15 0)
(3 -1.05529e-15 0)
(3 -7.95909e-16 0)
(3 -3.45326e-16 0)
(3 2.78689e-17 0)
(3 2.75558e-18 0)
(3 -4.33029e-16 0)
(3 -1.17613e-15 0)
(3 -1.86172e-15 0)
(3 -2.11753e-15 0)
(3 -2.85984e-15 0)
(3 -2.85791e-15 0)
(3 -2.42905e-15 0)
(3 -1.55674e-15 0)
(3 -7.6641e-17 0)
(3 8.88789e-16 0)
(3 8.05363e-16 0)
(3 5.70339e-16 0)
(3 1.46066e-15 0)
(3 1.69328e-15 0)
(3 2.06355e-15 0)
(3 -1.00814e-16 0)
(3 -1.27972e-16 0)
(3 -3.09242e-16 0)
(3 -3.1277e-16 0)
(3 -5.8077e-16 0)
(3 -4.04611e-16 0)
(3 -4.88885e-16 0)
(3 -3.43403e-16 0)
(3 -4.14266e-16 0)
(3 -9.59187e-16 0)
(3 -1.24082e-15 0)
(3 -6.04411e-16 0)
(3 -5.24912e-16 0)
(3 -5.53821e-17 0)
(3 -3.57242e-17 0)
(3 -1.19367e-16 0)
(3 -5.67128e-16 0)
(3 -3.99472e-16 0)
(3 4.1387e-16 0)
(3 9.19027e-16 0)
(3 1.04096e-15 0)
(3 1.73158e-15 0)
(3 2.45389e-15 0)
(3 2.30019e-15 0)
(3 1.64991e-15 0)
(3 1.49564e-15 0)
(3 1.23627e-15 0)
(3 5.07518e-16 0)
(3 9.90692e-16 0)
(3 4.69711e-16 0)
(3 -9.03419e-16 0)
(3 -6.14623e-16 0)
(3 -1.39576e-15 0)
(3 -2.32189e-15 0)
(3 -2.55149e-15 0)
(3 6.29348e-16 0)
(3 1.43812e-15 0)
(3 2.82596e-15 0)
(3 3.55247e-15 0)
(3 3.67798e-15 0)
(3 4.07516e-15 0)
(3 5.2622e-15 0)
(3 4.62386e-15 0)
(3 2.57824e-15 0)
(3 8.35559e-16 0)
(3 4.94767e-16 0)
(3 3.89829e-16 0)
(3 -3.92823e-17 0)
(3 -4.99493e-16 0)
(3 -1.03614e-15 0)
(3 -6.99018e-16 0)
(3 3.32031e-17 0)
(3 1.22655e-15 0)
(3 1.54215e-15 0)
(3 1.90956e-15 0)
(3 1.11168e-15 0)
(3 8.56598e-16 0)
(3 6.1347e-16 0)
(3 1.62887e-16 0)
(3 -1.07365e-15 0)
(3 -1.68096e-15 0)
(3 -2.97991e-15 0)
(3 -3.17374e-15 0)
(3 -3.14731e-15 0)
(3 -2.91795e-15 0)
(3 -2.35368e-15 0)
(3 -7.78712e-16 0)
(3 6.44748e-17 0)
(3 -2.5296e-16 0)
(3 -2.88684e-17 0)
(3 -1.19613e-16 0)
(3 -7.50972e-16 0)
(3 -7.63409e-16 0)
(3 -6.27216e-16 0)
(3 1.27663e-16 0)
(3 1.36469e-15 0)
(3 1.5713e-15 0)
(3 1.43137e-15 0)
(3 1.08759e-16 0)
(3 -5.15778e-16 0)
(3 1.22389e-15 0)
(3 1.40851e-15 0)
(3 4.45024e-16 0)
(3 -4.55801e-17 0)
(3 -6.69712e-16 0)
(3 -6.79386e-16 0)
(3 -8.75225e-16 0)
(3 -1.32743e-15 0)
(3 -1.91979e-15 0)
(3 -7.40107e-16 0)
(3 1.03185e-15 0)
(3 1.04339e-15 0)
(3 7.94639e-16 0)
(3 3.0586e-16 0)
(3 -3.03657e-16 0)
(3 -6.05881e-16 0)
(3 -4.20629e-17 0)
(3 -8.37847e-17 0)
(3 -7.36208e-16 0)
(3 -3.80759e-16 0)
(3 -3.15199e-16 0)
(3 -4.34956e-16 0)
(3 -2.21339e-16 0)
(3 5.89747e-17 0)
(3 -1.48538e-16 0)
(3 -5.71215e-16 0)
(3 -1.10155e-15 0)
(3 -1.05974e-15 0)
(3 -5.99617e-16 0)
(3 -1.80696e-16 0)
(3 7.30595e-17 0)
(3 -1.19577e-16 0)
(3 2.0215e-16 0)
(3 2.83879e-16 0)
(3 7.26505e-16 0)
(3 1.18701e-15 0)
(3 1.29472e-15 0)
(3 1.27325e-15 0)
(3 1.95599e-15 0)
(3 2.14572e-15 0)
(3 2.04121e-15 0)
(3 1.01618e-15 0)
(3 3.97869e-17 0)
(3 2.17394e-17 0)
(3 3.37294e-17 0)
(3 -7.66676e-16 0)
(3 -7.27701e-16 0)
(3 2.39545e-16 0)
(3 -1.23544e-15 0)
(3 -3.59961e-15 0)
(3 -3.20946e-15 0)
(3 -9.77014e-16 0)
(3 -3.23565e-16 0)
(3 1.66828e-15 0)
(3 3.00287e-15 0)
(3 2.81637e-15 0)
(3 1.9905e-15 0)
(3 3.22376e-15 0)
(3 2.12309e-15 0)
(3 6.39901e-16 0)
(3 1.6123e-16 0)
(3 1.47063e-16 0)
(3 -5.42273e-17 0)
(3 -4.12432e-16 0)
(3 -7.17775e-16 0)
(3 -6.86786e-16 0)
(3 -1.26923e-16 0)
(3 4.48884e-17 0)
(3 -2.21256e-16 0)
(3 -2.55118e-17 0)
(3 2.1791e-16 0)
(3 3.39166e-16 0)
(3 6.43817e-16 0)
(3 4.58842e-16 0)
(3 3.00461e-16 0)
(3 -1.84815e-15 0)
(3 -4.58273e-15 0)
(3 -6.02995e-15 0)
(3 -5.52296e-15 0)
(3 -4.27603e-15 0)
(3 -2.10645e-15 0)
(3 -1.80828e-15 0)
(3 -1.01951e-15 0)
(3 -4.56049e-16 0)
(3 -4.14417e-16 0)
(3 -2.73419e-16 0)
(3 7.38783e-16 0)
(3 2.23418e-15 0)
(3 2.2145e-15 0)
(3 2.17175e-15 0)
(3 1.30407e-15 0)
(3 1.16011e-15 0)
(3 1.06782e-15 0)
(3 5.86693e-16 0)
(3 -7.19372e-16 0)
(3 -2.24767e-15 0)
(3 -1.43065e-15 0)
(3 8.6339e-16 0)
(3 1.42962e-15 0)
(3 1.09762e-15 0)
(3 5.25332e-16 0)
(3 -6.79208e-16 0)
(3 -1.67994e-15 0)
(3 -2.44631e-15 0)
(3 -2.60547e-15 0)
(3 -1.69892e-15 0)
(3 -6.53229e-16 0)
(3 8.73756e-17 0)
(3 -3.8176e-16 0)
(3 -1.91371e-15 0)
(3 -2.95768e-15 0)
(3 -3.26519e-15 0)
(3 2.28293e-16 0)
(3 2.91678e-16 0)
(3 2.80029e-16 0)
(3 -2.05747e-16 0)
(3 1.94138e-18 0)
(3 -1.60581e-16 0)
(3 -2.19804e-16 0)
(3 -4.34836e-16 0)
(3 -6.69606e-16 0)
(3 -8.6951e-16 0)
(3 -7.04691e-16 0)
(3 -1.66738e-16 0)
(3 6.46542e-16 0)
(3 7.73435e-16 0)
(3 6.90498e-16 0)
(3 6.05583e-16 0)
(3 1.51023e-16 0)
(3 -6.65072e-17 0)
(3 -3.94877e-16 0)
(3 -2.04001e-16 0)
(3 1.33379e-15 0)
(3 1.30867e-15 0)
(3 1.44653e-15 0)
(3 1.53039e-15 0)
(3 1.02356e-15 0)
(3 5.80767e-16 0)
(3 5.0384e-16 0)
(3 1.00955e-15 0)
(3 1.18484e-15 0)
(3 2.42361e-16 0)
(3 3.58798e-16 0)
(3 4.22934e-16 0)
(3 -7.00136e-16 0)
(3 -2.07937e-15 0)
(3 -3.62984e-15 0)
(3 -2.1117e-15 0)
(3 -9.61627e-16 0)
(3 6.78865e-17 0)
(3 1.37814e-15 0)
(3 2.6531e-15 0)
(3 3.38145e-15 0)
(3 6.42181e-16 0)
(3 -1.18129e-15 0)
(3 -6.5813e-16 0)
(3 -9.05573e-16 0)
(3 -2.41812e-15 0)
(3 -3.04672e-15 0)
(3 -3.21154e-15 0)
(3 -2.81187e-15 0)
(3 -1.96553e-15 0)
(3 -9.25615e-16 0)
(3 2.94278e-16 0)
(3 5.10953e-16 0)
(3 9.77017e-16 0)
(3 1.03483e-15 0)
(3 1.40145e-15 0)
(3 1.57995e-15 0)
(3 -6.34223e-16 0)
(3 -2.41109e-15 0)
(3 -4.20404e-15 0)
(3 -4.87298e-15 0)
(3 -5.27777e-15 0)
(3 -5.17757e-15 0)
(3 -1.9158e-15 0)
(3 -1.19284e-15 0)
(3 -8.23032e-16 0)
(3 -5.14848e-16 0)
(3 -5.93595e-16 0)
(3 -4.30114e-16 0)
(3 -6.7216e-16 0)
(3 2.59996e-16 0)
(3 1.49567e-15 0)
(3 2.00346e-15 0)
(3 1.74295e-15 0)
(3 1.31809e-15 0)
(3 9.25199e-16 0)
(3 2.26019e-16 0)
(3 -5.9566e-16 0)
(3 -1.08893e-15 0)
(3 -2.43474e-15 0)
(3 -2.17996e-15 0)
(3 -1.02763e-15 0)
(3 5.95653e-16 0)
(3 1.53829e-15 0)
(3 1.44009e-15 0)
(3 -1.07332e-15 0)
(3 -1.90881e-15 0)
(3 -1.728e-15 0)
(3 -1.08567e-15 0)
(3 -1.01477e-15 0)
(3 -1.23814e-15 0)
(3 -1.66141e-15 0)
(3 -1.48615e-15 0)
(3 -2.85634e-15 0)
(3 -3.69408e-15 0)
(3 -3.03264e-15 0)
(3 -1.56896e-16 0)
(3 -5.22716e-17 0)
(3 -1.37367e-16 0)
(3 -3.90833e-16 0)
(3 -3.50195e-16 0)
(3 -2.14034e-16 0)
(3 -4.51998e-16 0)
(3 -8.47241e-16 0)
(3 -3.69233e-16 0)
(3 -9.078e-17 0)
(3 5.6858e-16 0)
(3 1.21159e-15 0)
(3 8.70091e-16 0)
(3 3.98031e-17 0)
(3 -2.72259e-16 0)
(3 -1.70826e-16 0)
(3 -1.25032e-15 0)
(3 -1.59476e-15 0)
(3 -1.07615e-15 0)
(3 -5.33664e-16 0)
(3 8.53138e-16 0)
(3 1.20595e-15 0)
(3 1.24655e-15 0)
(3 1.14602e-15 0)
(3 6.61911e-16 0)
(3 5.28711e-16 0)
(3 9.31506e-16 0)
(3 2.12568e-15 0)
(3 2.16412e-15 0)
(3 1.00554e-15 0)
(3 9.30307e-16 0)
(3 7.53144e-16 0)
(3 -5.89373e-16 0)
(3 -2.01745e-15 0)
(3 -3.84688e-15 0)
(3 -1.23924e-15 0)
(3 4.29939e-17 0)
(3 5.73271e-17 0)
(3 1.50332e-17 0)
(3 1.29476e-15 0)
(3 2.01069e-15 0)
(3 -1.7007e-15 0)
(3 -1.48364e-15 0)
(3 -1.18932e-15 0)
(3 -2.12307e-15 0)
(3 -3.25824e-15 0)
(3 -3.69484e-15 0)
(3 -3.45177e-15 0)
(3 -3.61768e-15 0)
(3 -3.62921e-15 0)
(3 -2.05632e-15 0)
(3 3.70131e-17 0)
(3 9.99393e-16 0)
(3 1.18391e-15 0)
(3 4.00414e-17 0)
(3 -2.22692e-16 0)
(3 -1.79777e-15 0)
(3 -2.5156e-15 0)
(3 -2.49533e-15 0)
(3 -2.71045e-15 0)
(3 -2.45468e-15 0)
(3 -1.92189e-15 0)
(3 -1.1968e-15 0)
(3 -4.89624e-16 0)
(3 -6.19122e-16 0)
(3 -7.68074e-16 0)
(3 -6.20117e-16 0)
(3 -1.13739e-16 0)
(3 -2.04308e-16 0)
(3 -1.00991e-15 0)
(3 -7.48028e-16 0)
(3 -2.01393e-16 0)
(3 5.08845e-16 0)
(3 3.59391e-16 0)
(3 -1.60404e-17 0)
(3 -7.01774e-16 0)
(3 -9.65903e-16 0)
(3 -2.26171e-15 0)
(3 -2.69081e-15 0)
(3 -1.20025e-15 0)
(3 -1.24482e-15 0)
(3 -2.58299e-15 0)
(3 -2.4203e-15 0)
(3 6.05392e-16 0)
(3 1.85485e-15 0)
(3 1.83754e-15 0)
(3 2.53861e-16 0)
(3 3.63624e-17 0)
(3 -2.04653e-16 0)
(3 -7.87475e-16 0)
(3 -1.51976e-15 0)
(3 -1.75868e-15 0)
(3 -2.5133e-15 0)
(3 -2.98887e-15 0)
(3 -3.20087e-15 0)
(3 -1.98474e-15 0)
(3 -9.58634e-18 0)
(3 -6.47528e-17 0)
(3 -3.76673e-16 0)
(3 -9.69706e-17 0)
(3 -7.26211e-17 0)
(3 -2.02957e-16 0)
(3 -2.60539e-16 0)
(3 -3.90702e-16 0)
(3 -1.07099e-16 0)
(3 6.28923e-16 0)
(3 1.42649e-15 0)
(3 1.08667e-15 0)
(3 2.85813e-16 0)
(3 -1.03595e-15 0)
(3 -1.79287e-15 0)
(3 -2.31328e-15 0)
(3 -2.20982e-15 0)
(3 -2.42656e-15 0)
(3 -2.12963e-15 0)
(3 -2.03484e-15 0)
(3 -1.40367e-15 0)
(3 1.78634e-16 0)
(3 3.82625e-16 0)
(3 -1.247e-16 0)
(3 -2.43497e-16 0)
(3 -4.98888e-16 0)
(3 6.92113e-17 0)
(3 1.11526e-15 0)
(3 9.45834e-16 0)
(3 9.66302e-16 0)
(3 1.47514e-15 0)
(3 1.29316e-15 0)
(3 -7.8206e-16 0)
(3 -2.73367e-15 0)
(3 -2.6478e-15 0)
(3 -1.51045e-15 0)
(3 -5.20333e-16 0)
(3 -3.21891e-16 0)
(3 -8.85382e-16 0)
(3 6.8374e-16 0)
(3 -2.33088e-16 0)
(3 -2.54064e-15 0)
(3 -2.14198e-15 0)
(3 -1.67794e-15 0)
(3 -1.73192e-15 0)
(3 -1.44659e-15 0)
(3 -1.23707e-15 0)
(3 -2.05676e-15 0)
(3 -2.68558e-15 0)
(3 -3.11167e-15 0)
(3 -3.24037e-15 0)
(3 -8.80883e-17 0)
(3 1.74713e-15 0)
(3 1.71518e-15 0)
(3 -9.18192e-16 0)
(3 -1.82459e-15 0)
(3 -1.36243e-15 0)
(3 -8.74435e-16 0)
(3 -1.03719e-15 0)
(3 -1.48829e-15 0)
(3 -1.69922e-15 0)
(3 -1.87583e-15 0)
(3 -7.42257e-16 0)
(3 2.98859e-16 0)
(3 1.01422e-15 0)
(3 4.06071e-16 0)
(3 -6.89735e-16 0)
(3 -1.25441e-15 0)
(3 -9.20227e-16 0)
(3 -9.7172e-16 0)
(3 -1.04835e-15 0)
(3 2.06192e-17 0)
(3 -2.32533e-16 0)
(3 1.39316e-16 0)
(3 4.95466e-16 0)
(3 -1.41487e-16 0)
(3 -1.13997e-15 0)
(3 -1.32425e-15 0)
(3 -9.30279e-16 0)
(3 -1.19338e-15 0)
(3 -1.9314e-15 0)
(3 -3.26792e-15 0)
(3 -3.19656e-15 0)
(3 -1.25113e-15 0)
(3 1.67208e-16 0)
(3 1.46089e-15 0)
(3 1.62155e-15 0)
(3 1.09491e-15 0)
(3 1.01024e-16 0)
(3 -9.35055e-16 0)
(3 -2.00443e-15 0)
(3 -2.31192e-15 0)
(3 -3.34402e-15 0)
(3 -2.70421e-15 0)
(3 -1.73162e-15 0)
(3 -4.04125e-16 0)
(3 3.10127e-16 0)
(3 2.61234e-17 0)
(3 1.62954e-16 0)
(3 4.98746e-16 0)
(3 7.53197e-16 0)
(3 7.33989e-16 0)
(3 2.15155e-16 0)
(3 3.13068e-16 0)
(3 4.78586e-16 0)
(3 2.48804e-16 0)
(3 6.14222e-16 0)
(3 4.28781e-16 0)
(3 -9.70854e-16 0)
(3 -1.29078e-15 0)
(3 -1.63414e-15 0)
(3 -2.77158e-15 0)
(3 -3.01633e-15 0)
(3 -2.4005e-15 0)
(3 -2.77414e-15 0)
(3 -2.46141e-15 0)
(3 -2.02919e-15 0)
(3 -1.25857e-15 0)
(3 -1.3239e-15 0)
(3 -1.91151e-15 0)
(3 -2.37011e-15 0)
(3 -2.12718e-15 0)
(3 -5.28181e-16 0)
(3 3.89237e-16 0)
(3 1.25e-15 0)
(3 1.64072e-15 0)
(3 1.11108e-15 0)
(3 1.72703e-16 0)
(3 -2.05445e-15 0)
(3 -3.26903e-15 0)
(3 -2.32851e-15 0)
(3 -2.20496e-15 0)
(3 -2.14099e-15 0)
(3 -1.51764e-15 0)
(3 -8.23726e-16 0)
(3 -2.7579e-16 0)
(3 -2.25666e-15 0)
(3 -2.02563e-15 0)
(3 -1.429e-15 0)
(3 -2.48594e-15 0)
(3 -3.04013e-15 0)
(3 -2.05478e-16 0)
(3 1.29718e-15 0)
(3 1.35643e-15 0)
(3 -1.09437e-16 0)
(3 -1.78903e-15 0)
(3 -1.71788e-15 0)
(3 2.77266e-16 0)
(3 1.40098e-15 0)
(3 1.51195e-15 0)
(3 -3.22726e-16 0)
(3 -9.96782e-16 0)
(3 -4.18347e-16 0)
(3 7.26229e-16 0)
(3 8.10953e-16 0)
(3 1.15909e-15 0)
(3 3.12248e-16 0)
(3 -7.15805e-16 0)
(3 2.12157e-16 0)
(3 7.67415e-16 0)
(3 2.13387e-15 0)
(3 2.16179e-15 0)
(3 1.18279e-15 0)
(3 4.45257e-16 0)
(3 -3.81312e-16 0)
(3 -8.96857e-16 0)
(3 1.96946e-16 0)
(3 1.09069e-15 0)
(3 1.10888e-15 0)
(3 -1.20664e-16 0)
(3 -9.25681e-16 0)
(3 -1.69919e-15 0)
(3 -1.97141e-15 0)
(3 -1.03813e-15 0)
(3 -6.02519e-16 0)
(3 -2.82513e-15 0)
(3 -4.1455e-15 0)
(3 -4.57643e-15 0)
(3 -3.18085e-15 0)
(3 -2.20116e-15 0)
(3 -7.51798e-16 0)
(3 6.97835e-16 0)
(3 6.29238e-16 0)
(3 3.88346e-17 0)
(3 -6.25326e-17 0)
(3 -1.02329e-15 0)
(3 -2.05051e-15 0)
(3 -3.70657e-15 0)
(3 -3.32418e-15 0)
(3 -1.8713e-15 0)
(3 -7.43124e-16 0)
(3 2.70788e-16 0)
(3 -4.93863e-17 0)
(3 5.567e-17 0)
(3 4.43975e-16 0)
(3 2.6942e-16 0)
(3 4.20024e-16 0)
(3 4.08362e-16 0)
(3 2.79629e-16 0)
(3 4.24551e-16 0)
(3 6.48716e-16 0)
(3 4.40662e-16 0)
(3 -3.74143e-16 0)
(3 -8.78078e-16 0)
(3 -9.40935e-16 0)
(3 -8.78507e-16 0)
(3 -6.13199e-16 0)
(3 -5.15681e-16 0)
(3 -1.08035e-15 0)
(3 -1.19462e-15 0)
(3 -8.94595e-16 0)
(3 -5.25406e-16 0)
(3 -3.86182e-16 0)
(3 -1.28652e-15 0)
(3 -1.15712e-15 0)
(3 -4.79001e-16 0)
(3 -9.35027e-18 0)
(3 7.2747e-16 0)
(3 3.35892e-16 0)
(3 3.28373e-16 0)
(3 1.6375e-15 0)
(3 1.99945e-15 0)
(3 1.04668e-15 0)
(3 2.46375e-16 0)
(3 2.23055e-16 0)
(3 -4.90688e-17 0)
(3 -4.59527e-16 0)
(3 -6.64628e-16 0)
(3 -1.6243e-15 0)
(3 -1.79705e-15 0)
(3 -4.24323e-16 0)
(3 -2.26305e-15 0)
(3 -4.9186e-15 0)
(3 -2.03359e-15 0)
(3 -2.55139e-15 0)
(3 -1.80318e-15 0)
(3 -1.80625e-16 0)
(3 6.1855e-16 0)
(3 1.92934e-15 0)
(3 2.68752e-15 0)
(3 1.63917e-15 0)
(3 -1.40344e-15 0)
(3 -3.11613e-15 0)
(3 -2.01057e-15 0)
(3 -1.42701e-15 0)
(3 2.09645e-16 0)
(3 2.11154e-16 0)
(3 5.01181e-17 0)
(3 2.36988e-16 0)
(3 8.98316e-16 0)
(3 2.21406e-15 0)
(3 4.00211e-15 0)
(3 3.38866e-15 0)
(3 2.48638e-15 0)
(3 1.8939e-15 0)
(3 8.70572e-16 0)
(3 2.50784e-15 0)
(3 3.03259e-15 0)
(3 3.12036e-15 0)
(3 1.11192e-15 0)
(3 1.89453e-16 0)
(3 4.23706e-16 0)
(3 7.76186e-16 0)
(3 1.16952e-15 0)
(3 1.32897e-15 0)
(3 2.38408e-16 0)
(3 -1.12771e-15 0)
(3 -1.90837e-15 0)
(3 -3.78045e-16 0)
(3 1.46814e-15 0)
(3 1.16023e-15 0)
(3 -4.12211e-16 0)
(3 -2.31503e-15 0)
(3 -2.96409e-15 0)
(3 -2.93491e-15 0)
(3 -3.83981e-15 0)
(3 -2.54347e-15 0)
(3 -1.41284e-15 0)
(3 -1.04346e-15 0)
(3 -9.52693e-16 0)
(3 -6.23916e-16 0)
(3 -1.39904e-16 0)
(3 -5.11875e-16 0)
(3 -8.61665e-16 0)
(3 3.85123e-16 0)
(3 -2.23354e-16 0)
(3 -7.8153e-16 0)
(3 -1.18236e-15 0)
(3 -4.388e-17 0)
(3 7.05194e-18 0)
(3 2.43286e-16 0)
(3 2.13942e-16 0)
(3 2.63341e-16 0)
(3 4.05086e-16 0)
(3 8.87432e-16 0)
(3 7.83939e-16 0)
(3 5.1379e-16 0)
(3 6.14112e-16 0)
(3 1.45822e-16 0)
(3 -7.21391e-16 0)
(3 -8.90721e-16 0)
(3 -1.03199e-15 0)
(3 -9.15654e-16 0)
(3 3.45494e-16 0)
(3 7.07236e-16 0)
(3 1.78687e-16 0)
(3 -5.49625e-16 0)
(3 -1.00178e-15 0)
(3 -1.78788e-15 0)
(3 -1.93744e-15 0)
(3 -8.85265e-16 0)
(3 6.75745e-16 0)
(3 1.40195e-15 0)
(3 1.09899e-15 0)
(3 8.38751e-16 0)
(3 1.82531e-16 0)
(3 -3.10267e-16 0)
(3 -3.16092e-16 0)
(3 9.50224e-16 0)
(3 1.25155e-15 0)
(3 2.02909e-15 0)
(3 3.59771e-15 0)
(3 1.995e-15 0)
(3 3.87903e-16 0)
(3 -2.05436e-15 0)
(3 -3.44071e-15 0)
(3 -2.59407e-15 0)
(3 -4.37894e-15 0)
(3 -4.70213e-15 0)
(3 -2.96877e-15 0)
(3 -3.76989e-15 0)
(3 -9.22524e-16 0)
(3 2.42338e-15 0)
(3 3.79595e-15 0)
(3 4.51643e-15 0)
(3 4.15155e-15 0)
(3 3.71717e-15 0)
(3 6.85454e-16 0)
(3 -3.20846e-15 0)
(3 -2.90212e-15 0)
(3 -3.6975e-16 0)
(3 1.06559e-15 0)
(3 1.52755e-15 0)
(3 2.09188e-15 0)
(3 1.9332e-15 0)
(3 1.84479e-15 0)
(3 2.59409e-15 0)
(3 2.76947e-15 0)
(3 2.89595e-15 0)
(3 2.6025e-15 0)
(3 1.53558e-15 0)
(3 1.95644e-15 0)
(3 2.74667e-15 0)
(3 3.04173e-15 0)
(3 1.83385e-15 0)
(3 -3.97091e-16 0)
(3 -1.80365e-17 0)
(3 3.61129e-16 0)
(3 2.15092e-16 0)
(3 1.62177e-16 0)
(3 -2.0386e-16 0)
(3 -4.11356e-16 0)
(3 -2.11006e-16 0)
(3 6.34927e-16 0)
(3 2.22311e-15 0)
(3 2.16061e-15 0)
(3 1.76441e-15 0)
(3 1.14617e-15 0)
(3 9.33264e-16 0)
(3 -2.18455e-16 0)
(3 -1.01319e-15 0)
(3 -1.93622e-15 0)
(3 -1.91916e-15 0)
(3 -1.71204e-15 0)
(3 -1.48665e-15 0)
(3 6.88058e-17 0)
(3 1.40777e-15 0)
(3 1.31636e-15 0)
(3 6.21989e-16 0)
(3 9.90938e-16 0)
(3 1.06169e-15 0)
(3 8.2037e-16 0)
(3 3.89266e-16 0)
(3 3.17116e-16 0)
(3 -3.82684e-17 0)
(3 3.26834e-18 0)
(3 1.31131e-16 0)
(3 2.75828e-16 0)
(3 2.01419e-16 0)
(3 1.62682e-16 0)
(3 5.05836e-16 0)
(3 3.32593e-16 0)
(3 4.51962e-16 0)
(3 6.71195e-16 0)
(3 6.01644e-16 0)
(3 -1.0981e-16 0)
(3 3.88719e-17 0)
(3 8.41894e-17 0)
(3 -2.85162e-16 0)
(3 -4.23582e-16 0)
(3 2.52742e-16 0)
(3 6.10613e-16 0)
(3 -1.91638e-16 0)
(3 -1.20778e-15 0)
(3 -2.55497e-15 0)
(3 -2.67667e-15 0)
(3 -1.34549e-15 0)
(3 -7.72055e-16 0)
(3 -4.54011e-16 0)
(3 -5.41874e-16 0)
(3 -5.50167e-16 0)
(3 -7.56665e-16 0)
(3 -2.27219e-15 0)
(3 -2.14803e-15 0)
(3 -7.0881e-16 0)
(3 8.3389e-16 0)
(3 2.92174e-15 0)
(3 5.76965e-15 0)
(3 3.1834e-15 0)
(3 -1.39669e-15 0)
(3 -3.85709e-15 0)
(3 -4.38136e-15 0)
(3 -4.27391e-15 0)
(3 -3.79934e-15 0)
(3 -3.81556e-15 0)
(3 -5.1739e-15 0)
(3 -3.1746e-15 0)
(3 -1.98784e-15 0)
(3 1.80585e-15 0)
(3 4.63149e-15 0)
(3 4.97164e-15 0)
(3 4.68915e-15 0)
(3 4.50642e-15 0)
(3 3.67474e-15 0)
(3 1.83453e-15 0)
(3 -4.22247e-16 0)
(3 1.13194e-15 0)