/*--------------------------------*- C++ -*----------------------------------*\
  =========                 |
  \\      /  F ield         | OpenFOAM: The Open Source CFD Toolbox
   \\    /   O peration     | Website:  https://openfoam.org
    \\  /    A nd           | Version:  7
     \\/     M anipulation  |
\*---------------------------------------------------------------------------*/
FoamFile
{
    version     2.0;
    format      ascii;
    class       volScalarField;
    location    "3.1";
    object      p;
}
// * * * * * * * * * * * * * * * * * * * * * * * * * * * * * * * * * * * * * //

dimensions      [1 -1 -2 0 0 0 0];

internalField   nonuniform List<scalar> 
4608
(
1
1
1
1
1
1
1
1
1
1
1
1
1
1
1
1
1
1
1
1
1
1
1
1
1
1
1
1
1
1
1
1
1
1
1
1
1
1
1
1
1
1
1
1
1
1
1
1
1
1
1
1
1
1
1
1
1
1
1
1
1
1
1
1
1
1
1
1
1
1
1
1
1
1
1
1
1
1
1
1
1
1
1
1
1
1
1
1
1
1
1
1
1
1
1
1
1
1
1
1
1
1
1
1
1
1
1
1
1
1
1
1
1
1
1
1
1
1
1
1
1
1
1
1
1
1
1
1
1
1
1
1
1
1
1
1
1
1
1
1
1
1
1
1
1
1
1
1
1
1
1
1
1
1
1
1
1
1
1
1
1
1
1
1
1
1
1
1
1
1
1
1
1
1
1
1
1
1
1
1
1
1
1
1
1
1
1
1
1
1
1
1
1
1
1
1
1
1
1
1
1
1
1
1
1
1
1
1
1
1
1
1
1
1
1
1
1
1
1
1
1
1
1
1
1
1
1
1
1
1
1
1
1
1
1
1
1
1
1
1
1
1
1
1
1
1
1
1
1
1
1
1
1
1
1
1
1
1
1
1
1
1
1
1
1
1
1
1
1
1
1
1
1
1
1
1
1
1
1
1
1
1
1
1
1
1
1
1
1
1
1
1
1
1
1
1
1
1
1
1
1
1
1
1
1
1
1
1
1
1
1
1
1
1
1
1
1
1
1
1
1
1
1
1
1
1
1
1
1
1
1
1
1
1
1
1
1
1
1
1
1
1
1
1
1
1
1
1
1
1
1
1
1
1
1
1
1
1
1
1
1
1
1
1
1
1
1
1
1
1
1
1
1
1
1
1
1
1
1
1
1
1
1
1
1
1
1
1
1
1
1
1
1
1
1
1
1
1
1
1
1
1
1
1
1
1
1
1
1
1
1
1
1
1
1
1
1
1
1
1
1
1
1
1
1
1
1
1
1
1
1
1
1
1
1
1
1
1
1
1
1
1
1
1
1
1
1
1
1
1
1
1
1
1
1
1
1
1
1
1
1
1
1
1
1
1
1
1
1
1
1
1
1
1
1
1
1
1
1
1
1
1
1
1
1
1
1
1
1
1
1
1
1
1
1
1
1
1
1
1
1
1
1
1
1
1
1
1
1
1
1
1
1
1
1
1
1
1
1
1
1
1
1
1
1
1
1
1
1
1
1
1
1
1
1
1
1
1
1
1
1
1
1
1
1
1
1
1
1
1
1
1
1
1
1
1
1
1
1
1
1
1
1
1
1
1
1
1
1
1
1
1
1
1
1
1
1
1
1
1
1
1
1
1
1
1
1
1
1
1
1
1
1
1
1
1
1
1
1
1
1
1
1
1
1
1
1
1
1
1
1
1
1
1
1
1
1
1
1
1
1
1
1
1
1
1
1
1
1
1
1
1
1
1
1
1
1
1
1
1
1
1
1
1
1
1
1
1
1
1
1
1
1
1
1
1
1
1
1
1
1
1
1
1
1
1
1
1
1
1
1
1
1
1
1
1
1
1
1
1
1
1
1
1
1
1
1
1
1
1
1
1
1
1
1
1
1
1
1
1
1
1
1
1
1
1
1
1
1
1
1
1
1
1
1
1
1
1
1
1
1
1
1
1
1
1
1
1
1
1
1
1
1
1
1
1
1
1
1
1
1
1
1
1
1
1
1
1
1
1
1
1
1
1
1
1
1
1
1
1
1
1
1
1
1
1
1
1
1.29394
1.75854
2.31865
3.00066
3.62039
4.3039
4.85489
5.29999
5.35975
5.15137
4.72544
4.22986
3.79795
3.65797
3.5728
3.58022
3.6048
3.63939
3.68478
3.722
3.75021
3.75584
3.7547
3.74975
1.00198
1.02218
1.08376
1.2138
1.47874
1.84827
2.37441
2.98774
3.58661
3.81558
4.06327
4.06266
3.94379
3.83423
3.79888
3.74752
3.70825
3.68186
3.68641
3.70847
3.73671
3.75588
3.7612
3.76282
0.999996
0.999985
1.00015
1.0001
1.00369
1.0226
1.11025
1.3591
2.00128
2.97273
3.86948
4.2959
4.35585
4.25895
4.11113
3.89098
3.74784
3.69644
3.67867
3.68704
3.7099
3.74811
3.76631
3.77221
1
1
0.999999
0.999998
0.999986
1.00003
0.999961
1.00172
1.03479
1.30635
2.03515
3.12486
3.94809
4.11683
4.0281
3.95377
3.90098
3.81866
3.73208
3.6878
3.68516
3.70195
3.7335
3.7541
1
1
1
1
0.999999
0.999999
0.999994
0.999996
0.999892
1.00166
1.0369
1.37703
2.18732
3.41013
3.84984
4.05107
4.05001
3.99122
3.8222
3.7258
3.69485
3.68439
3.6976
3.71918
1
1
1
1
1
1
1
1
0.999988
0.999989
0.999899
1.00396
1.06922
1.5217
2.49661
3.55288
3.97103
3.94907
3.89922
3.82627
3.77896
3.73053
3.70392
3.70936
1
1
1
1
1
1
1
1
1
0.999999
0.999987
0.999992
0.999982
1.01006
1.17239
1.78869
2.86215
3.64406
3.92518
3.91923
3.88012
3.81344
3.75373
3.7205
1
1
1
1
1
1
1
1
1
1
1
0.999999
0.999997
0.999962
1.00115
1.0318
1.37184
2.25243
3.27533
3.64525
3.78538
3.78229
3.73608
3.69551
1
1
1
1
1
1
1
1
1
1
1
1
1
0.999994
0.999994
0.999985
1.00883
1.11907
1.75463
2.80226
3.65907
3.75314
3.75083
3.71974
1
1
1
1
1
1
1
1
1
1
1
1
1
1
0.999999
0.999997
0.99998
1.00099
1.05214
1.39292
2.4113
3.26894
3.75537
3.79418
1
1
1
1
1
1
1
1
1
1
1
1
1
1
1
1
0.999997
0.999993
1.0003
1.01342
1.23067
1.98713
3.16358
3.50777
1
1
1
1
1
1
1
1
1
1
1
1
1
1
1
1
1
0.999999
0.999997
1.00001
1.00654
1.11384
1.71966
2.73526
1
1
1
1
1
1
1
1
1
1
1
1
1
1
1
1
1
1
0.999999
0.999999
1
1.00204
1.06228
1.4941
1
1
1
1
1
1
1
1
1
1
1
1
1
1
1
1
1
1
1
1
1
0.999998
1.00103
1.0312
1
1
1
1
1
1
1
1
1
1
1
1
1
1
1
1
1
1
1
1
1
0.999999
1
1.00009
1
1
1
1
1
1
1
1
1
1
1
1
1
1
1
1
1
1
1
1
1
1
1
0.999996
1
1
1
1
1
1
1
1
1
1
1
1
1
1
1
1
1
1
1
1
1
1
1
0.999996
1
1
1
1
1
1
1
1
1
1
1
1
1
1
1
1
1
1
1
1
1
0.999999
1
0.999989
1
1
1
1
1
1
1
1
1
1
1
1
1
1
1
1
1
1
1
1
1
0.999999
1.00106
1.03206
1
1
1
1
1
1
1
1
1
1
1
1
1
1
1
1
1
1
0.999999
0.999999
0.999999
1.00208
1.06328
1.54795
1
1
1
1
1
1
1
1
1
1
1
1
1
1
1
1
1
0.999999
0.999997
1.00001
1.00694
1.10861
1.74113
2.81413
1
1
1
1
1
1
1
1
1
1
1
1
1
1
1
1
0.999997
0.999993
1.00032
1.01312
1.23177
1.97401
3.20695
3.4975
1
1
1
1
1
1
1
1
1
1
1
1
1
1
0.999999
0.999997
0.99998
1.00099
1.05274
1.39496
2.38483
3.29793
3.75816
3.79082
1
1
1
1
1
1
1
1
1
1
1
1
1
0.999994
0.999994
0.999985
1.00883
1.11873
1.75837
2.80234
3.64545
3.76152
3.75505
3.72332
1
1
1
1
1
1
1
1
1
1
1
0.999999
0.999997
0.999962
1.00115
1.03183
1.37137
2.25172
3.28227
3.64138
3.78071
3.78522
3.74158
3.69499
1
1
1
1
1
1
1
1
1
0.999999
0.999987
0.999992
0.999982
1.01006
1.17248
1.78885
2.86039
3.64681
3.92551
3.91736
3.87812
3.81386
3.75404
3.72038
1
1
1
1
1
1
1
1
0.999988
0.999989
0.999899
1.00396
1.06923
1.52159
2.49729
3.55221
3.97063
3.94958
3.89955
3.82554
3.77849
3.73128
3.7032
3.70883
1
1
1
1
0.999999
0.999999
0.999994
0.999996
0.999892
1.00166
1.0369
1.37705
2.18714
3.41038
3.85023
4.05089
4.04956
3.99096
3.82346
3.72512
3.69488
3.68458
3.69729
3.7191
1
1
0.999999
0.999998
0.999986
1.00003
0.999961
1.00172
1.03479
1.30632
2.03516
3.12489
3.94795
4.11699
4.02814
3.95371
3.90072
3.81843
3.73295
3.68713
3.68493
3.7021
3.73381
3.754
0.999996
0.999985
1.00015
1.0001
1.00369
1.02261
1.11025
1.3591
2.00127
2.97271
3.86941
4.29596
4.35588
4.25886
4.11112
3.89118
3.74764
3.69632
3.67868
3.68695
3.70988
3.74815
3.76628
3.77205
1.00198
1.02218
1.08377
1.21377
1.47876
1.8483
2.37438
2.98777
3.58662
3.81559
4.06309
4.06293
3.94384
3.83391
3.79906
3.74772
3.70811
3.68171
3.6863
3.70858
3.73673
3.75588
3.76116
3.76271
1.29394
1.75855
2.3186
3.00073
3.62049
4.30367
4.85488
5.30013
5.35978
5.15137
4.72541
4.22983
3.79774
3.65791
3.57303
3.58019
3.60477
3.63949
3.68504
3.72223
3.75026
3.75585
3.75467
3.74966
2.63787
1.69277
1.1501
0.833581
0.645123
0.637599
0.698133
0.763915
0.781186
0.827545
0.89272
0.940122
0.968776
1.01057
1.05417
1.06382
1.06056
1.05264
1.05393
1.05707
1.05356
1.05689
1.06753
1.14742
1.61345
2.81464
4.57594
6.7355
8.77582
9.35204
8.75125
7.69739
6.93518
6.53334
6.2691
6.01616
5.77614
5.59297
5.43977
5.2843
5.10897
4.91065
4.70474
4.50536
4.31136
4.12066
3.94938
3.80662
3.69406
3.61444
3.54487
3.46839
3.38063
3.27321
3.13907
2.98494
2.84822
2.75525
2.69431
2.65456
2.61514
2.56666
2.51049
2.43895
2.3555
2.2789
2.20912
2.1377
2.07156
1.99674
1.96333
1.99105
2.1489
2.56267
3.35302
4.13767
4.7867
5.28178
5.49384
5.35742
5.03679
4.76651
4.67667
4.61116
4.57094
4.52334
4.45937
4.37546
4.2469
4.05596
3.92125
3.87162
3.83571
3.80299
3.78901
3.73157
3.36107
2.71642
2.17527
1.81965
1.45082
1.19613
1.14104
1.07003
0.98836
0.950836
0.935004
0.91841
0.9172
0.930049
0.958091
0.989464
1.00084
1.00193
1.00493
1.0175
1.02218
1.03439
1.11314
1.64548
2.62922
3.02954
3.53545
4.29559
5.5357
6.75898
7.58527
7.49023
7.11127
6.71534
6.36933
6.04736
5.83109
5.67603
5.51077
5.34313
5.1657
4.96852
4.76402
4.56166
4.36467
4.18272
4.02774
3.89773
3.78174
3.68218
3.60129
3.52204
3.43368
3.32294
3.17889
3.02054
2.89412
2.81807
2.76091
2.71184
2.66679
2.61455
2.555
2.48306
2.4033
2.32177
2.24896
2.18215
2.11417
2.0906
2.13536
2.31708
2.66424
3.05429
3.33597
3.69904
4.11073
4.4805
4.73418
4.80272
4.81535
4.79787
4.7449
4.67838
4.61269
4.54852
4.4773
4.39189
4.27099
4.10564
3.96436
3.90894
3.87442
3.84104
3.82069
3.75921
3.66281
3.34794
2.83928
2.39182
2.03447
1.65296
1.38913
1.25554
1.12324
0.986289
0.960168
0.950504
0.929066
0.919845
0.923807
0.943865
0.964149
0.965057
0.969757
0.991879
1.01885
1.13878
1.70805
2.70813
3.24905
3.31987
3.3083
3.3363
3.56631
4.55198
6.17619
7.17992
7.24821
6.99284
6.47063
6.08252
5.81438
5.58666
5.35885
5.15149
5.00443
4.85612
4.68961
4.51195
4.34291
4.17892
4.01629
3.87059
3.73801
3.61227
3.4998
3.40682
3.32126
3.22577
3.1077
2.99289
2.90998
2.8289
2.73836
2.65368
2.59446
2.54337
2.48364
2.41251
2.34016
2.26477
2.2135
2.1766
2.188
2.2869
2.56083
2.93695
3.28592
3.41523
3.35716
3.34212
3.42415
3.64214
3.95925
4.38717
4.62071
4.76622
4.78445
4.74749
4.67215
4.57133
4.46816
4.36828
4.26346
4.14679
4.00997
3.88045
3.82418
3.79392
3.77145
3.7102
3.73956
3.62541
3.32612
2.88783
2.54131
2.17876
1.76846
1.57689
1.46857
1.26617
1.1324
1.11236
1.0787
0.984541
0.950366
0.958824
0.950028
0.937443
0.943057
0.964317
1.13972
1.74661
2.81168
3.29085
3.28461
3.24061
3.15666
3.04915
2.96335
3.06004
3.68848
5.17626
6.45907
6.59578
6.49842
6.24355
5.9027
5.57865
5.30047
5.05766
4.91315
4.81334
4.69446
4.55037
4.3909
4.21747
4.03296
3.88792
3.75835
3.62738
3.49414
3.36744
3.26062
3.17038
3.09828
3.02837
2.94866
2.85734
2.75871
2.65421
2.56817
2.50806
2.44886
2.38888
2.32387
2.26826
2.22922
2.27364
2.513
2.91168
3.28527
3.5344
3.56416
3.52894
3.39677
3.25868
3.22923
3.24636
3.35477
3.67795
4.08735
4.46658
4.60983
4.60138
4.56698
4.52271
4.44376
4.34705
4.26325
4.17943
4.0598
3.89989
3.81512
3.78328
3.75515
3.69122
3.73479
3.71168
3.58504
3.29469
2.92603
2.62109
2.25998
1.87309
1.72561
1.60427
1.40536
1.25488
1.20076
1.11057
1.00187
0.974246
0.959201
0.943637
0.96566
1.19338
1.92543
2.81756
3.33393
3.31486
3.22227
3.06913
2.93648
2.84296
2.80957
2.74775
2.77012
3.08923
4.15455
5.45291
6.24664
6.16531
5.91352
5.5566
5.28431
5.06147
4.88973
4.73196
4.56226
4.38478
4.22515
4.12679
4.05307
3.95516
3.83771
3.69043
3.52951
3.37141
3.2122
3.08804
3.00976
2.96051
2.92892
2.8913
2.82084
2.71496
2.59349
2.48877
2.4121
2.36598
2.31791
2.31344
2.41666
2.7407
3.23198
3.55695
3.70326
3.70589
3.66005
3.54318
3.37704
3.25115
3.20709
3.20029
3.20518
3.26497
3.49346
3.80855
4.19792
4.4239
4.45735
4.42914
4.3859
4.32716
4.26194
4.19329
4.10668
3.98074
3.83766
3.75494
3.72918
3.67145
3.72827
3.72874
3.6975
3.56132
3.28585
2.94796
2.65755
2.34684
2.03128
1.84562
1.67829
1.50657
1.40978
1.32077
1.16021
1.06798
1.06346
1.10706
1.40148
2.22234
3.04394
3.42165
3.39221
3.27243
3.11405
2.95729
2.83753
2.75209
2.69524
2.62075
2.53594
2.46058
2.56928
3.19215
4.52743
5.46611
5.62808
5.5619
5.36106
5.1391
4.8947
4.67003
4.47396
4.30083
4.15237
4.04297
3.94319
3.853
3.76315
3.6736
3.55848
3.3682
3.14655
3.03401
2.98861
2.95293
2.90674
2.8437
2.77351
2.68759
2.58122
2.46523
2.41741
2.38454
2.42457
2.62671
3.03612
3.52346
3.83928
3.88376
3.85528
3.7992
3.67027
3.50277
3.35035
3.26617
3.2278
3.20598
3.18441
3.18194
3.19267
3.27687
3.43597
3.75318
4.03598
4.15693
4.24365
4.30575
4.29459
4.24515
4.16092
4.03422
3.87153
3.74727
3.71942
3.6648
3.72794
3.73672
3.72509
3.67824
3.53223
3.29072
2.98034
2.67105
2.40553
2.19773
1.96643
1.70299
1.59178
1.52774
1.41086
1.25403
1.28552
1.69282
2.68073
3.46894
3.6792
3.57915
3.38346
3.21734
3.07069
2.93092
2.82024
2.73242
2.64807
2.54982
2.44614
2.33893
2.24931
2.27213
2.58454
3.52868
4.62825
5.30701
5.34161
5.2274
4.93121
4.64074
4.41752
4.23127
4.06921
3.95725
3.87392
3.79893
3.72702
3.6498
3.53429
3.34852
3.14315
3.02102
2.96146
2.91296
2.8577
2.81066
2.7595
2.69016
2.59704
2.49341
2.47775
2.57608
2.94315
3.41293
3.80292
4.0018
4.00919
3.95921
3.88489
3.78798
3.63986
3.45167
3.34867
3.31513
3.27818
3.23823
3.20064
3.16899
3.13988
3.09616
3.05199
3.1089
3.3439
3.70043
3.99192
4.18793
4.27723
4.26445
4.20445
4.09716
3.95223
3.77646
3.69938
3.63476
3.69773
3.71101
3.72447
3.71761
3.65564
3.50387
3.29107
3.01295
2.66365
2.47191
2.29594
2.07453
1.78274
1.67743
1.61739
1.71754
2.30879
3.43562
4.15766
4.10853
3.9166
3.69026
3.47213
3.29389
3.13555
2.99721
2.8745
2.7652
2.64569
2.53458
2.42203
2.29961
2.1916
2.14487
2.10933
2.21685
2.7629
3.86181
4.76371
4.92267
4.87221
4.67869
4.44457
4.21927
4.04029
3.91726
3.83077
3.75337
3.67296
3.58423
3.47516
3.32826
3.14755
3.00591
2.93905
2.88383
2.8245
2.76514
2.696
2.65544
2.60063
2.62322
2.82691
3.27735
3.76365
4.03969
4.18703
4.19799
4.13578
4.03869
3.92453
3.78641
3.60506
3.43977
3.37939
3.34702
3.30841
3.26285
3.21783
3.17055
3.12125
3.05964
2.97712
2.89826
2.92917
3.12421
3.47713
3.82721
4.06831
4.17147
4.16308
4.12811
4.01932
3.82615
3.6892
3.60932
3.70178
3.7067
3.71989
3.71543
3.69891
3.63088
3.47615
3.26194
3.01234
2.70475
2.50186
2.32834
2.0944
1.98913
2.22645
3.10082
4.33982
4.79593
4.68074
4.38387
4.08978
3.84947
3.64366
3.44651
3.25183
3.07464
2.93302
2.81964
2.70414
2.58508
2.45063
2.29897
2.1862
2.11759
2.06051
1.99281
2.00472
2.27919
3.06181
3.98311
4.53122
4.53716
4.45848
4.23252
4.02737
3.88097
3.78978
3.71569
3.62925
3.5224
3.40431
3.27564
3.14405
3.01347
2.91656
2.8406
2.78616
2.73989
2.70929
2.71157
2.8272
3.20319
3.7495
4.12724
4.17346
4.22082
4.23057
4.18239
4.11371
4.03391
3.92231
3.76487
3.57528
3.44996
3.41236
3.37824
3.33563
3.2891
3.24042
3.18221
3.1105
3.02193
2.9294
2.86711
2.83977
2.85161
2.98326
3.29207
3.66534
3.94271
4.06643
4.06733
4.01957
3.87327
3.71107
3.60351
3.76409
3.74951
3.74981
3.74409
3.72748
3.69028
3.60856
3.45199
3.24908
2.98443
2.76219
2.4908
2.53197
3.06147
4.30123
5.43667
5.59141
5.38217
5.0105
4.64525
4.32297
4.048
3.80997
3.59337
3.39433
3.20758
3.04102
2.88672
2.74092
2.60087
2.46866
2.3306
2.22427
2.13432
2.0598
1.97808
1.90925
1.86507
1.95201
2.38912
3.23506
3.95854
4.2003
4.16232
4.02432
3.88225
3.76107
3.65967
3.55859
3.45048
3.34843
3.24126
3.1231
2.98959
2.87759
2.80495
2.78216
2.7718
2.85707
3.18605
3.6834
4.268
4.48625
4.50129
4.41668
4.28877
4.20676
4.13772
4.07374
4.01277
3.91884
3.76595
3.58681
3.48644
3.43979
3.39745
3.35361
3.30823
3.25883
3.19772
3.11366
2.99954
2.8985
2.84695
2.82517
2.81077
2.81283
2.88614
3.09964
3.42657
3.71063
3.87281
3.89865
3.85324
3.73488
3.61528
3.62329
3.69911
3.75625
3.76251
3.74553
3.71997
3.67209
3.59068
3.42188
3.229
3.02163
3.21829
4.25413
5.73109
6.46235
6.36983
6.00006
5.60709
5.24847
4.90462
4.56645
4.24304
3.95154
3.69557
3.47996
3.2977
3.14277
2.99313
2.83897
2.67992
2.5202
2.36336
2.23951
2.14739
2.06976
1.98933
1.90284
1.84067
1.77315
1.77824
1.97081
2.56408
3.33203
3.88615
3.97003
3.91435
3.74568
3.59379
3.46889
3.36544
3.28619
3.2041
3.09758
2.96794
2.86949
2.81722
2.84082
3.04383
3.60313
4.25277
4.6617
4.69005
4.62018
4.52616
4.42412
4.31707
4.21734
4.12837
4.046
3.97965
3.89916
3.77335
3.62925
3.52949
3.46592
3.41529
3.36945
3.32341
3.27401
3.21428
3.12354
2.99427
2.89555
2.85202
2.82424
2.80018
2.78504
2.76011
2.77678
2.88073
3.13184
3.42754
3.67841
3.75387
3.72747
3.63739
3.58634
3.77616
3.75328
3.71134
3.70512
3.71153
3.69762
3.65881
3.54556
3.56529
4.20542
5.7743
7.28243
7.66169
7.41777
6.83936
6.29069
5.84892
5.4664
5.10368
4.75291
4.41994
4.11921
3.85048
3.61252
3.40107
3.21118
3.03512
2.87548
2.73403
2.59307
2.45137
2.31508
2.18183
2.06301
1.97497
1.90833
1.84471
1.76838
1.7181
1.67118
1.73099
2.07347
2.79702
3.50481
3.69026
3.66198
3.55088
3.41767
3.31754
3.22808
3.14299
3.05334
2.97332
2.91579
2.9891
3.36821
4.03412
4.6706
5.00608
5.03266
4.93157
4.72874
4.52429
4.39682
4.31688
4.23474
4.14396
4.0463
3.95319
3.86507
3.77097
3.66702
3.56135
3.47937
3.42264
3.37713
3.33172
3.28176
3.21801
3.12122
3.00779
2.93228
2.88447
2.83929
2.80035
2.76504
2.73298
2.6913
2.65816
2.70198
2.87764
3.16906
3.44818
3.63083
3.63947
2.6636
3.47858
3.56662
3.6477
3.7074
3.73443
3.73244
3.75126
4.00372
5.34186
7.61193
8.48968
8.3258
8.01079
7.57127
7.12468
6.6421
6.16648
5.71954
5.30158
4.91343
4.55824
4.24653
3.97056
3.71786
3.48695
3.28605
3.11338
2.95092
2.78534
2.61691
2.46008
2.33671
2.24073
2.13464
2.0164
1.90437
1.82121
1.76915
1.70486
1.6432
1.58241
1.59114
1.75681
2.28156
2.93713
3.35837
3.44928
3.40907
3.29743
3.16952
3.10535
3.05856
3.1154
3.31963
3.90058
4.56623
5.02013
5.06016
5.0438
5.00375
4.92271
4.77276
4.59107
4.45831
4.35921
4.2644
4.16228
4.04694
3.93044
3.83738
3.76704
3.68485
3.58228
3.48983
3.41885
3.36863
3.32834
3.28467
3.2205
3.12387
3.02348
2.95571
2.90901
2.86571
2.81877
2.77171
2.72552
2.66939
2.60757
2.55239
2.57135
2.69415
2.95806
3.27934
3.52123
1.39438
2.34935
3.14519
3.66195
3.69587
3.71465
3.93476
4.66412
6.5206
8.8678
9.89063
9.66951
8.8861
8.15757
7.6958
7.30934
6.85848
6.35932
5.8851
5.45764
5.06509
4.70783
4.38591
4.09312
3.82554
3.57557
3.3341
3.118
2.95514
2.83103
2.70287
2.56426
2.40989
2.24416
2.11459
2.02146
1.94429
1.8557
1.76415
1.71545
1.67652
1.60291
1.53335
1.47264
1.5259
1.82496
2.4393
2.9892
3.2203
3.19789
3.1449
3.18028
3.45894
3.93587
4.52928
5.21055
5.4802
5.41871
5.24954
5.03944
4.89222
4.80818
4.70876
4.5982
4.49727
4.39677
4.29473
4.18455
4.0603
3.93904
3.83595
3.74631
3.6569
3.5756
3.50688
3.44008
3.37443
3.31168
3.24834
3.18393
3.1181
3.0528
2.99386
2.92917
2.8749
2.84705
2.81483
2.76077
2.68473
2.59258
2.53248
2.49264
2.49381
2.58041
2.79051
3.19559
1.02371
1.29429
1.98978
3.13063
3.37608
4.14114
6.03643
7.75964
9.56493
10.0767
10.0186
9.69468
9.17844
8.51319
7.93423
7.43682
6.94017
6.42328
5.93607
5.52695
5.16957
4.82358
4.50144
4.20931
3.93974
3.67139
3.4056
3.18646
3.00393
2.84098
2.69064
2.54933
2.42324
2.28952
2.16376
2.04687
1.94839
1.86364
1.79009
1.72411
1.64274
1.55731
1.47113
1.42361
1.38875
1.39421
1.55077
2.03475
2.69883
3.00572
3.24244
3.88517
4.73865
5.20985
5.50595
5.5966
5.56832
5.42366
5.23563
5.07956
4.91459
4.7738
4.67212
4.58805
4.51148
4.42612
4.3201
4.19412
4.06283
3.94147
3.83569
3.74861
3.66253
3.58134
3.52825
3.48386
3.42086
3.33416
3.2351
3.14801
3.09747
3.06566
3.0259
2.97285
2.91456
2.84767
2.78058
2.71599
2.65659
2.6016
2.5412
2.4797
2.45094
2.44365
2.47821
2.76114
1.0004
1.01967
1.14789
2.00736
3.53947
5.83875
8.45121
9.99446
10.9199
10.6569
10.0582
9.60655
9.26722
8.78469
8.14114
7.48358
6.95893
6.53321
6.10179
5.66382
5.26275
4.87227
4.52573
4.21534
3.91211
3.68487
3.53364
3.3536
3.14137
2.93169
2.76218
2.61235
2.46631
2.29412
2.14739
2.08963
2.02974
1.96005
1.87058
1.75868
1.64604
1.55932
1.48806
1.42081
1.36819
1.32907
1.33657
1.46155
1.91858
2.88181
3.8355
4.9777
5.74779
6.06598
6.03291
5.88767
5.57756
5.33373
5.19492
5.09872
4.96333
4.78957
4.67249
4.5942
4.51902
4.4248
4.33433
4.22774
4.10283
3.97421
3.83602
3.7246
3.65811
3.60893
3.5546
3.47561
3.38989
3.30517
3.22016
3.15561
3.11117
3.06935
3.02693
2.98562
2.93214
2.85183
2.76722
2.70426
2.65081
2.58886
2.52564
2.47613
2.44166
2.40401
2.40532
2.51415
1.00042
1.00866
1.18652
1.81113
3.77007
6.28496
7.97
10.0409
10.9723
10.4028
9.95257
9.69244
9.42901
9.01928
8.35776
7.63908
7.0135
6.47659
5.9987
5.54196
5.1764
4.92696
4.65736
4.34493
4.03599
3.74314
3.46598
3.24066
3.0415
2.83861
2.70621
2.64873
2.54812
2.38071
2.19774
2.04744
1.94511
1.87315
1.79733
1.70092
1.6398
1.60386
1.54814
1.47007
1.38818
1.33751
1.34415
1.43974
1.83964
2.73032
4.00271
4.96867
5.54376
6.08075
6.04392
5.75436
5.47624
5.32519
5.22371
5.1376
5.00146
4.8289
4.70211
4.60742
4.51543
4.39889
4.26428
4.14494
4.04197
3.94559
3.84585
3.75767
3.68428
3.61866
3.55652
3.47375
3.37279
3.30213
3.25006
3.20345
3.15788
3.1155
3.07771
3.03688
2.97499
2.87434
2.76088
2.69023
2.64397
2.58924
2.53891
2.49476
2.45057
2.41008
2.40883
2.48937
1.02808
1.21862
2.04255
2.89523
3.58181
4.54731
5.6584
7.82445
9.30748
9.79209
9.88002
9.73705
9.30157
8.6828
8.11538
7.57339
7.00412
6.43894
5.9375
5.51817
5.13691
4.7625
4.42849
4.13976
3.8816
3.64894
3.41884
3.19841
3.00446
2.85681
2.73003
2.5772
2.43078
2.30469
2.17549
2.04689
1.93766
1.84378
1.7677
1.7059
1.63056
1.54688
1.48262
1.4405
1.39416
1.40932
1.59295
2.09678
2.69532
2.93138
3.39604
3.90434
4.49054
5.23284
5.40489
5.47409
5.50158
5.46252
5.31887
5.14832
4.98756
4.86106
4.75383
4.64387
4.52007
4.37266
4.23041
4.10799
4.02145
3.97075
3.91707
3.84443
3.76099
3.66919
3.56875
3.46881
3.36651
3.27254
3.20507
3.16264
3.12511
3.08646
3.04662
3.00281
2.94235
2.84835
2.73364
2.64935
2.6164
2.59854
2.57222
2.53261
2.48525
2.44899
2.47269
2.7131
1.39594
2.23373
3.2567
3.58986
3.67656
3.72464
3.8803
4.65178
6.59534
8.83198
9.87453
9.74843
9.04302
8.30209
7.81346
7.36401
6.84588
6.29942
5.79784
5.36639
4.98457
4.64001
4.34748
4.09843
3.86561
3.62532
3.3836
3.16207
2.97083
2.80944
2.66635
2.51044
2.36533
2.28221
2.21124
2.11285
1.99618
1.87321
1.76821
1.68666
1.60798
1.53765
1.48106
1.46336
1.53096
1.88954
2.50219
3.07842
3.22718
3.16948
3.14513
3.17344
3.34232
3.86289
4.57979
5.16061
5.50956
5.50829
5.32636
5.07505
4.9078
4.82313
4.7415
4.63732
4.50195
4.35194
4.2193
4.10401
4.00697
3.93596
3.86965
3.80174
3.73174
3.64593
3.54179
3.44605
3.35983
3.27894
3.2111
3.16104
3.1254
3.09605
3.06319
3.00899
2.92801
2.82811
2.72413
2.64929
2.59986
2.56388
2.53733
2.52636
2.54045
2.6131
2.79786
3.1355
2.53925
3.39392
3.66302
3.71433
3.7482
3.76103
3.74278
3.74472
4.02865
5.39243
7.56292
8.50685
8.4299
8.11178
7.63641
7.0951
6.5548
6.05736
5.61538
5.22126
4.86877
4.56279
4.29223
4.0374
3.79203
3.55612
3.32882
3.11722
2.92084
2.73359
2.57197
2.45369
2.34992
2.22881
2.11488
2.03341
1.95067
1.85172
1.74891
1.66525
1.61141
1.54883
1.55294
1.72807
2.25659
2.98375
3.40354
3.45518
3.39717
3.25754
3.12067
3.07973
3.06161
3.12032
3.41568
3.96553
4.71049
5.07534
5.03125
5.00338
4.9567
4.86675
4.73762
4.59422
4.46554
4.34987
4.23114
4.11791
4.03298
3.95923
3.88152
3.80311
3.72144
3.62028
3.50887
3.4234
3.36626
3.31542
3.26032
3.2078
3.15636
3.09902
3.03724
2.96646
2.88924
2.81775
2.75772
2.691
2.60939
2.56979
2.56564
2.60384
2.7636
3.04556
3.37335
3.51728
3.47971
3.74774
3.77876
3.76519
3.73642
3.7263
3.69373
3.65214
3.54264
3.5599
4.14361
5.74292
7.29403
7.65319
7.39471
6.77931
6.22623
5.78515
5.41412
5.07906
4.76418
4.46722
4.1901
3.93293
3.69615
3.4699
3.24863
3.03823
2.84403
2.66895
2.52923
2.41274
2.29456
2.17534
2.06828
1.99493
1.94133
1.87918
1.77527
1.70023
1.64524
1.70076
2.06624
2.77641
3.47377
3.72676
3.70063
3.5651
3.38534
3.2635
3.16926
3.10716
3.05252
3.02818
2.99157
3.07278
3.4111
4.01657
4.5896
4.91748
4.95545
4.87219
4.71498
4.57379
4.47801
4.38411
4.26777
4.13713
4.01954
3.93071
3.84977
3.76726
3.67981
3.5896
3.50891
3.43259
3.35196
3.27958
3.22846
3.18939
3.14076
3.0734
2.9999
2.933
2.87081
2.80857
2.74499
2.67276
2.62077
2.61501
2.69068
2.92277
3.27931
3.59794
3.7158
3.69228
3.59971
3.66569
3.74058
3.77178
3.75758
3.72683
3.66199
3.57407
3.41126
3.23213
3.0163
3.20111
4.22837
5.71432
6.38981
6.29652
5.95493
5.57655
5.22338
4.9015
4.59693
4.3033
4.0282
3.77453
3.54732
3.33701
3.13517
2.94539
2.77561
2.60992
2.45635
2.33285
2.24034
2.16578
2.09592
2.02512
1.93673
1.85589
1.7758
1.77378
1.95187
2.53453
3.34463
3.87592
3.96604
3.91791
3.77741
3.59773
3.4246
3.32075
3.26502
3.19648
3.12116
3.04063
2.96602
2.88542
2.88092
3.01436
3.48968
4.07136
4.53522
4.63034
4.64833
4.61858
4.53054
4.41727
4.27699
4.13448
4.00673
3.90606
3.81346
3.72564
3.64679
3.57877
3.51458
3.44168
3.36325
3.29908
3.24831
3.18031
3.0977
3.0226
2.96076
2.90832
2.86217
2.81923
2.77563
2.70166
2.69348
2.79624
3.07469
3.42094
3.75041
3.86384
3.86766
3.79214
3.7627
3.74097
3.75107
3.7519
3.73641
3.69289
3.59892
3.44002
3.2453
2.98693
2.76244
2.48914
2.52758
3.04239
4.24608
5.40912
5.61341
5.39072
5.01926
4.66722
4.3604
4.09467
3.84952
3.6109
3.38882
3.18471
2.99252
2.81646
2.67465
2.54668
2.43156
2.33823
2.26154
2.16998
2.08567
1.9972
1.94862
1.88555
1.9462
2.37044
3.16538
3.90834
4.17292
4.19732
4.11134
3.9734
3.81323
3.63951
3.48715
3.37822
3.29323
3.20818
3.12871
3.04709
2.97227
2.88717
2.84028
2.76208
2.78775
3.04021
3.58176
4.15652
4.51359
4.5881
4.54183
4.4095
4.26377
4.13644
4.00496
3.88066
3.77173
3.6879
3.62675
3.5738
3.52198
3.46695
3.40685
3.33082
3.22345
3.10919
3.02816
2.97749
2.93531
2.90186
2.87489
2.8532
2.82224
2.83657
2.96919
3.25231
3.55009
3.79508
3.9297
3.93695
3.9054
3.77432
3.70001
3.69769
3.7158
3.72486
3.70588
3.6268
3.46965
3.25894
3.01035
2.70396
2.50434
2.32677
2.09284
1.98909
2.21615
3.10721
4.39189
4.81218
4.70163
4.41855
4.12971
3.8904
3.66214
3.43242
3.22002
3.0404
2.88449
2.75288
2.64804
2.54638
2.43505
2.34024
2.25242
2.16137
2.0927
2.01901
2.02966
2.24184
2.95885
3.89385
4.35141
4.53017
4.47575
4.3288
4.18261
4.02406
3.85022
3.67396
3.53373
3.42784
3.33313
3.23743
3.14912
3.06726
2.99075
2.92151
2.84689
2.76823
2.64829
2.60802
2.73328
3.16057
3.78419
4.22099
4.35838
4.35238
4.29842
4.18538
4.0113
3.84811
3.73962
3.66548
3.61756
3.57593
3.53315
3.48927
3.43807
3.33515
3.1605
3.03179
2.9783
2.94502
2.92062
2.91085
2.90759
2.95367
3.0652
3.27848
3.56538
3.75577
3.86032
3.93443
3.93059
3.89484
3.84793
3.73564
3.69569
3.7084
3.726
3.72205
3.65832
3.50502
3.29063
3.00875
2.66124
2.47334
2.29472
2.0699
1.77896
1.68228
1.62126
1.72598
2.35219
3.45297
4.15724
4.12711
3.93885
3.70407
3.47918
3.27473
3.10273
2.96393
2.83126
2.71623
2.61256
2.5197
2.42043
2.35636
2.27706
2.21712
2.15267
2.24186
2.78265
3.7556
4.61781
4.76429
4.73221
4.63376
4.49124
4.34284
4.19492
4.02887
3.85709
3.70809
3.59438
3.4942
3.38922
3.27858
3.17731
3.10106
3.03768
2.96249
2.87065
2.76749
2.65338
2.54708
2.50321
2.55751
2.83627
3.36824
3.92227
4.2323
4.25194
4.19912
4.00595
3.80972
3.71178
3.65364
3.61341
3.57986
3.54383
3.50326
3.43819
3.30849
3.11248
2.98824
2.95292
2.92553
2.92679
2.94674
3.07535
3.35687
3.6842
3.94495
4.0622
4.05037
3.97049
3.907
3.8788
3.83721
3.79437
3.70878
3.72798
3.7372
3.72777
3.67981
3.53145
3.28898
2.97889
2.6712
2.4057
2.19756
1.96259
1.7013
1.59481
1.53016
1.41056
1.25518
1.29269
1.70146
2.66914
3.4736
3.67811
3.56688
3.37235
3.18675
3.03743
2.92613
2.82175
2.72739
2.63509
2.54822
2.46252
2.41186
2.33283
2.34606
2.62833
3.54626
4.61686
5.1921
5.20446
5.06726
4.86764
4.67887
4.52196
4.37755
4.21874
4.03298
3.86723
3.74662
3.6477
3.55206
3.4443
3.32771
3.21643
3.1215
3.06057
3.0107
2.93298
2.81988
2.68473
2.55958
2.47072
2.44956
2.45792
2.60898
3.0111
3.57099
3.92835
4.00815
3.93525
3.79547
3.72881
3.6757
3.63087
3.58695
3.5384
3.47968
3.39436
3.26756
3.09462
2.98529
2.96607
2.96182
2.99148
3.17204
3.5776
3.98658
4.23994
4.33968
4.32187
4.2153
4.01848
3.88764
3.82953
3.79139
3.76967
3.70688
3.72962
3.72978
3.69824
3.56184
3.2852
2.9491
2.65861
2.34475
2.02968
1.84648
1.67895
1.5069
1.40981
1.31779
1.15597
1.07227
1.0671
1.10947
1.39255
2.18788
3.05651
3.39789
3.34935
3.20578
3.06068
2.95689
2.86569
2.78363
2.7123
2.62674
2.55207
2.49215
2.60895
3.25588
4.51829
5.50833
5.52052
5.44526
5.26525
5.1057
4.95206
4.78665
4.62226
4.43673
4.22783
4.02861
3.88437
3.78248
3.68951
3.59784
3.49424
3.37476
3.25442
3.15173
3.06834
2.98872
2.89703
2.79411
2.67329
2.55941
2.48352
2.42733
2.39542
2.3972
2.46579
2.73331
3.14087
3.56533
3.75566
3.75443
3.75738
3.72312
3.66261
3.58762
3.51684
3.44634
3.35418
3.23334
3.09036
3.01555
3.02233
3.08918
3.33625
3.75628
4.17892
4.38934
4.40481
4.39682
4.32992
4.19038
4.01403
3.89022
3.81355
3.77222
3.75549
3.71695
3.73532
3.7122
3.58517
3.29379
2.92634
2.62211
2.25757
1.87108
1.72774
1.60639
1.40433
1.25398
1.19914
1.10718
1.0005
0.976121
0.960941
0.944233
0.964018
1.19159
1.88325
2.93612
3.26774
3.2278
3.17129
3.09989
2.99958
2.9109
2.85032
2.76512
2.77811
3.05892
4.11234
5.39094
6.14653
6.11577
5.84592
5.50157
5.26237
5.10626
4.99081
4.86679
4.67945
4.44055
4.22038
4.05741
3.93604
3.8251
3.71518
3.60735
3.50318
3.39522
3.27988
3.17097
3.07291
2.97804
2.88273
2.79455
2.70913
2.61518
2.52187
2.44797
2.40368
2.37065
2.34692
2.36213
2.45915
2.73801
3.19222
3.50566
3.63708
3.64693
3.60292
3.53317
3.46065
3.38058
3.29843
3.2152
3.14144
3.17041
3.31455
3.62989
4.05748
4.34821
4.50641
4.53577
4.49143
4.3771
4.25697
4.13175
4.02559
3.9386
3.85491
3.79625
3.76992
3.71115
3.73933
3.6253
3.32578
2.88806
2.54281
2.17809
1.76621
1.5769
1.46998
1.26731
1.13174
1.11176
1.07807
0.98376
0.950101
0.959094
0.951061
0.938031
0.943495
0.966436
1.1222
1.79687
2.83858
3.18934
3.27855
3.28926
3.20773
3.09922
3.02195
3.12307
3.74046
5.09152
6.3547
6.46855
6.40138
6.15672
5.90205
5.65099
5.44461
5.24764
5.04275
4.83658
4.62935
4.42579
4.2426
4.08925
3.96089
3.86007
3.7711
3.68246
3.585
3.48037
3.35467
3.20433
3.07137
2.96248
2.87018
2.79554
2.73185
2.66424
2.59094
2.52775
2.47358
2.41713
2.34583
2.26903
2.22768
2.26529
2.48443
2.88633
3.25537
3.5304
3.54947
3.51646
3.43249
3.32729
3.2715
3.29071
3.40384
3.67137
4.02838
4.43114
4.6114
4.58477
4.55343
4.48749
4.40425
4.32683
4.24759
4.15759
4.08142
4.01114
3.90866
3.82431
3.79488
3.72778
3.66273
3.34754
2.83901
2.3927
2.03481
1.65093
1.38842
1.25575
1.12396
0.985755
0.960008
0.950623
0.92965
0.920185
0.923677
0.943144
0.964405
0.965711
0.971026
0.993776
1.0205
1.141
1.7822
2.69807
3.2315
3.3178
3.32698
3.3504
3.61837
4.6388
6.19816
7.01318
7.13531
6.89977
6.44185
6.09668
5.89248
5.69814
5.4767
5.23889
5.01503
4.80448
4.60147
4.41838
4.26953
4.14326
4.03323
3.92804
3.80382
3.66316
3.52737
3.41008
3.29934
3.17943
3.06403
2.9639
2.88335
2.82729
2.775
2.71642
2.64342
2.53775
2.43078
2.37003
2.31261
2.24098
2.19026
2.1833
2.20889
2.34618
2.60866
3.01061
3.30069
3.3586
3.33314
3.32496
3.39343
3.6286
4.05283
4.48494
4.74894
4.87926
4.86749
4.7493
4.54884
4.39631
4.30673
4.25302
4.19097
4.12244
4.07476
4.02862
3.95989
3.85409
3.75158
3.66039
3.36089
2.71668
2.17587
1.81879
1.44982
1.19589
1.14187
1.07129
0.987979
0.949868
0.934711
0.918663
0.917611
0.931239
0.958799
0.988486
1.00017
1.0017
1.00472
1.01758
1.02325
1.03611
1.12928
1.64831
2.55783
3.04755
3.56462
4.29541
5.61472
6.83576
7.50222
7.37818
7.01396
6.6726
6.41808
6.19058
5.97793
5.76736
5.54216
5.28545
5.0196
4.79007
4.62513
4.50121
4.38831
4.28284
4.17597
4.04991
3.89428
3.72377
3.55739
3.4066
3.28509
3.19044
3.10539
3.03275
2.98231
2.93708
2.88309
2.81725
2.73081
2.6062
2.45729
2.35132
2.30172
2.25947
2.22039
2.19765
2.17201
2.1727
2.24343
2.41242
2.75195
3.03922
3.24184
3.54203
3.91873
4.28183
4.72296
4.93426
5.00327
4.97975
4.86705
4.70737
4.52301
4.36209
4.2917
4.24131
4.19637
4.16868
4.13737
4.09226
4.02417
3.91315
3.77124
3.61585
2.63779
1.69301
1.149
0.833683
0.645734
0.638374
0.698214
0.765068
0.781548
0.825775
0.890306
0.93905
0.968913
1.01252
1.05594
1.06356
1.05978
1.0514
1.05256
1.05653
1.05454
1.05942
1.07
1.14225
1.54421