/*--------------------------------*- C++ -*----------------------------------*\
  =========                 |
  \\      /  F ield         | OpenFOAM: The Open Source CFD Toolbox
   \\    /   O peration     | Website:  https://openfoam.org
    \\  /    A nd           | Version:  7
     \\/     M anipulation  |
\*---------------------------------------------------------------------------*/
FoamFile
{
    version     2.0;
    format      ascii;
    class       volScalarField;
    location    "3.1";
    object      rho;
}
// * * * * * * * * * * * * * * * * * * * * * * * * * * * * * * * * * * * * * //

dimensions      [1 -3 0 0 0 0 0];

internalField   nonuniform List<scalar> 
4608
(
1.40001
1.40001
1.40001
1.40001
1.40001
1.40001
1.40001
1.40001
1.40001
1.40001
1.40001
1.40001
1.40001
1.40001
1.40001
1.40001
1.40001
1.40001
1.40001
1.40001
1.40001
1.40001
1.40001
1.40001
1.40001
1.40001
1.40001
1.40001
1.40001
1.40001
1.40001
1.40001
1.40001
1.40001
1.40001
1.40001
1.40001
1.40001
1.40001
1.40001
1.40001
1.40001
1.40001
1.40001
1.40001
1.40001
1.40001
1.40001
1.40001
1.40001
1.40001
1.40001
1.40001
1.40001
1.40001
1.40001
1.40001
1.40001
1.40001
1.40001
1.40001
1.40001
1.40001
1.40001
1.40001
1.40001
1.40001
1.40001
1.40001
1.40001
1.40001
1.40001
1.40001
1.40001
1.40001
1.40001
1.40001
1.40001
1.40001
1.40001
1.40001
1.40001
1.40001
1.40001
1.40001
1.40001
1.40001
1.40001
1.40001
1.40001
1.40001
1.40001
1.40001
1.40001
1.40001
1.40001
1.40001
1.40001
1.40001
1.40001
1.40001
1.40001
1.40001
1.40001
1.40001
1.40001
1.40001
1.40001
1.40001
1.40001
1.40001
1.40001
1.40001
1.40001
1.40001
1.40001
1.40001
1.40001
1.40001
1.40001
1.40001
1.40001
1.40001
1.40001
1.40001
1.40001
1.40001
1.40001
1.40001
1.40001
1.40001
1.40001
1.40001
1.40001
1.40001
1.40001
1.40001
1.40001
1.40001
1.40001
1.40001
1.40001
1.40001
1.40001
1.40001
1.40001
1.40001
1.40001
1.40001
1.40001
1.40001
1.40001
1.40001
1.40001
1.40001
1.40001
1.40001
1.40001
1.40001
1.40001
1.40001
1.40001
1.40001
1.40001
1.40001
1.40001
1.40001
1.40001
1.40001
1.40001
1.40001
1.40001
1.40001
1.40001
1.40001
1.40001
1.40001
1.40001
1.40001
1.40001
1.40001
1.40001
1.40001
1.40001
1.40001
1.40001
1.40001
1.40001
1.40001
1.40001
1.40001
1.40001
1.40001
1.40001
1.40001
1.40001
1.40001
1.40001
1.40001
1.40001
1.40001
1.40001
1.40001
1.40001
1.40001
1.40001
1.40001
1.40001
1.40001
1.40001
1.40001
1.40001
1.40001
1.40001
1.40001
1.40001
1.40001
1.40001
1.40001
1.40001
1.40001
1.40001
1.40001
1.40001
1.40001
1.40001
1.40001
1.40001
1.40001
1.40001
1.40001
1.40001
1.40001
1.40001
1.40001
1.40001
1.40001
1.40001
1.40001
1.40001
1.40001
1.40001
1.40001
1.40001
1.40001
1.40001
1.40001
1.40001
1.40001
1.40001
1.40001
1.40001
1.40001
1.40001
1.40001
1.40001
1.40001
1.40001
1.40001
1.40001
1.40001
1.40001
1.40001
1.40001
1.40001
1.40001
1.40001
1.40001
1.40001
1.40001
1.40001
1.40001
1.40001
1.40001
1.40001
1.40001
1.40001
1.40001
1.40001
1.40001
1.40001
1.40001
1.40001
1.40001
1.40001
1.40001
1.40001
1.40001
1.40001
1.40001
1.40001
1.40001
1.40001
1.40001
1.40001
1.40001
1.40001
1.40001
1.40001
1.40001
1.40001
1.40001
1.40001
1.40001
1.40001
1.40001
1.40001
1.40001
1.40001
1.40001
1.40001
1.40001
1.40001
1.40001
1.40001
1.40001
1.40001
1.40001
1.40001
1.40001
1.40001
1.40001
1.40001
1.40001
1.40001
1.40001
1.40001
1.40001
1.40001
1.40001
1.40001
1.40001
1.40001
1.40001
1.40001
1.40001
1.40001
1.40001
1.40001
1.40001
1.40001
1.40001
1.40001
1.40001
1.40001
1.40001
1.40001
1.40001
1.40001
1.40001
1.40001
1.40001
1.40001
1.40001
1.40001
1.40001
1.40001
1.40001
1.40001
1.40001
1.40001
1.40001
1.40001
1.40001
1.40001
1.40001
1.40001
1.40001
1.40001
1.40001
1.40001
1.40001
1.40001
1.40001
1.40001
1.40001
1.40001
1.40001
1.40001
1.40001
1.40001
1.40001
1.40001
1.40001
1.40001
1.40001
1.40001
1.40001
1.40001
1.40001
1.40001
1.40001
1.40001
1.40001
1.40001
1.40001
1.40001
1.40001
1.40001
1.40001
1.40001
1.40001
1.40001
1.40001
1.40001
1.40001
1.40001
1.40001
1.40001
1.40001
1.40001
1.40001
1.40001
1.40001
1.40001
1.40001
1.40001
1.40001
1.40001
1.40001
1.40001
1.40001
1.40001
1.40001
1.40001
1.40001
1.40001
1.40001
1.40001
1.40001
1.40001
1.40001
1.40001
1.40001
1.40001
1.40001
1.40001
1.40001
1.40001
1.40001
1.40001
1.40001
1.40001
1.40001
1.40001
1.40001
1.40001
1.40001
1.40001
1.40001
1.40001
1.40001
1.40001
1.40001
1.40001
1.40001
1.40001
1.40001
1.40001
1.40001
1.40001
1.40001
1.40001
1.40001
1.40001
1.40001
1.40001
1.40001
1.40001
1.40001
1.40001
1.40001
1.40001
1.40001
1.40001
1.40001
1.40001
1.40001
1.40001
1.40001
1.40001
1.40001
1.40001
1.40001
1.40001
1.40001
1.40001
1.40001
1.40001
1.40001
1.40001
1.40001
1.40001
1.40001
1.40001
1.40001
1.40001
1.40001
1.40001
1.40001
1.40001
1.40001
1.40001
1.40001
1.40001
1.40001
1.40001
1.40001
1.40001
1.40001
1.40001
1.40001
1.40001
1.40001
1.40001
1.40001
1.40001
1.40001
1.40001
1.40001
1.40001
1.40001
1.40001
1.40001
1.40001
1.40001
1.40001
1.40001
1.40001
1.40001
1.40001
1.40001
1.40001
1.40001
1.40001
1.40001
1.40001
1.40001
1.40001
1.40001
1.40001
1.40001
1.40001
1.40001
1.40001
1.40001
1.40001
1.40001
1.40001
1.40001
1.40001
1.40001
1.40001
1.40001
1.40001
1.40001
1.40001
1.40001
1.40001
1.40001
1.40001
1.40001
1.40001
1.40001
1.40001
1.40001
1.40001
1.40001
1.40001
1.40001
1.40001
1.40001
1.40001
1.40001
1.40001
1.40001
1.40001
1.40001
1.40001
1.40001
1.40001
1.40001
1.40001
1.40001
1.40001
1.40001
1.40001
1.40001
1.40001
1.40001
1.40001
1.40001
1.40001
1.40001
1.40001
1.40001
1.40001
1.40001
1.40001
1.40001
1.40001
1.40001
1.40001
1.40001
1.40001
1.40001
1.40001
1.40001
1.40001
1.40001
1.40001
1.40001
1.40001
1.40001
1.40001
1.40001
1.40001
1.40001
1.40001
1.40001
1.40001
1.40001
1.40001
1.40001
1.40001
1.40001
1.40001
1.40001
1.40001
1.40001
1.40001
1.40001
1.40001
1.40001
1.40001
1.40001
1.40001
1.40001
1.40001
1.40001
1.40001
1.40001
1.40001
1.40001
1.40001
1.40001
1.40001
1.40001
1.40001
1.40001
1.40001
1.40001
1.40001
1.40001
1.40001
1.40001
1.40001
1.40001
1.40001
1.40001
1.40001
1.40001
1.40001
1.40001
1.40001
1.40001
1.40001
1.40001
1.40001
1.40001
1.40001
1.40001
1.40001
1.40001
1.40001
1.40001
1.40001
1.40001
1.40001
1.40001
1.40001
1.40001
1.40001
1.40001
1.40001
1.40001
1.40001
1.40001
1.40001
1.40001
1.40001
1.40001
1.40001
1.40001
1.40001
1.40001
1.40001
1.40001
1.40001
1.40001
1.40001
1.40001
1.40001
1.40001
1.40001
1.40001
1.40001
1.40001
1.40001
1.40001
1.40001
1.40001
1.40001
1.40001
1.40001
1.40001
1.40001
1.40001
1.40001
1.40001
1.40001
1.40001
1.40001
1.40001
1.40001
1.40001
1.40001
1.40001
1.40001
1.40001
1.40001
1.40001
1.40001
1.40001
1.40001
1.40001
1.40001
1.40001
1.40001
1.40001
1.40001
1.40001
1.40001
1.40001
1.40001
1.40001
1.40001
1.40001
1.40001
1.40001
1.40001
1.40001
1.40001
1.40001
1.40001
1.40001
1.40001
1.40001
1.40001
1.40001
1.40001
1.40001
1.40001
1.40001
1.40001
1.40001
1.40001
1.40001
1.67899
2.08434
2.52599
3.01266
3.41338
3.83046
4.1421
4.41272
4.42081
4.29114
4.03767
3.73012
3.45105
3.36015
3.30498
3.30951
3.32526
3.34683
3.37511
3.39842
3.41627
3.41992
3.41932
3.41594
1.40188
1.42049
1.47498
1.58636
1.80419
2.10368
2.51227
2.97288
3.384
3.52512
3.66161
3.63201
3.54259
3.46472
3.44156
3.4097
3.38526
3.36555
3.36779
3.38179
3.40074
3.41396
3.41852
3.41847
1.4
1.39999
1.40015
1.40009
1.40336
1.42056
1.49788
1.70587
2.20196
2.87477
3.44783
3.707
3.76137
3.70708
3.61748
3.47934
3.38602
3.35104
3.3407
3.34695
3.36394
3.39151
3.40638
3.40892
1.4
1.4
1.4
1.4
1.39999
1.40004
1.39997
1.40156
1.43026
1.64455
2.17884
2.92616
3.43484
3.58093
3.53363
3.48274
3.44529
3.39138
3.33811
3.3158
3.31954
3.33406
3.35936
3.37301
1.40001
1.40001
1.40001
1.4
1.4
1.4
1.4
1.4
1.39991
1.40151
1.43143
1.70039
2.27957
3.08675
3.37432
3.50123
3.50168
3.46748
3.36449
3.30935
3.29602
3.29724
3.30815
3.32089
1.40001
1.40001
1.40001
1.40001
1.40001
1.4
1.4
1.4
1.39999
1.39999
1.39992
1.40362
1.45913
1.80888
2.49474
3.17321
3.44039
3.43107
3.40224
3.3575
3.33126
3.30599
3.29012
3.29172
1.40001
1.40001
1.40001
1.40001
1.40001
1.40001
1.40001
1.40001
1.4
1.4
1.39999
1.4
1.4
1.40909
1.54354
2.01439
2.74967
3.24455
3.41614
3.41213
3.38797
3.34654
3.30963
3.28923
1.40001
1.40001
1.40001
1.40001
1.40001
1.40001
1.40001
1.40001
1.40001
1.40001
1.4
1.4
1.4
1.39997
1.4011
1.42853
1.70263
2.35423
3.02659
3.25476
3.33367
3.33075
3.30104
3.27475
1.40001
1.40001
1.40001
1.40001
1.40001
1.40001
1.40001
1.40001
1.40001
1.40001
1.40001
1.40001
1.4
1.4
1.4
1.4
1.40818
1.50395
1.99871
2.72884
3.27155
3.32325
3.31915
3.29824
1.40001
1.40001
1.40001
1.40001
1.40001
1.40001
1.40001
1.40001
1.40001
1.40001
1.40001
1.40001
1.40001
1.4
1.4
1.4
1.39999
1.40096
1.44723
1.72808
2.4739
3.0378
3.34575
3.35362
1.40001
1.40001
1.40001
1.40001
1.40001
1.40001
1.40001
1.40001
1.40001
1.40001
1.40001
1.40001
1.40001
1.40001
1.40001
1.4
1.4
1.4
1.40031
1.4125
1.59897
2.18024
2.98634
3.19238
1.40001
1.40001
1.40001
1.40001
1.40001
1.40001
1.40001
1.40001
1.40001
1.40001
1.40001
1.40001
1.40001
1.40001
1.40001
1.40001
1.4
1.4
1.4
1.40002
1.40622
1.50174
1.98645
2.70571
1.40001
1.40001
1.40001
1.40001
1.40001
1.40001
1.40001
1.40001
1.40001
1.40001
1.40001
1.40001
1.40001
1.40001
1.40001
1.40001
1.40001
1.4
1.4
1.4
1.40001
1.40198
1.45718
1.81364
1.40001
1.40001
1.40001
1.40001
1.40001
1.40001
1.40001
1.40001
1.40001
1.40001
1.40001
1.40001
1.40001
1.40001
1.40001
1.40001
1.40001
1.40001
1.40001
1.4
1.4
1.4
1.40102
1.42912
1.40001
1.40001
1.40001
1.40001
1.40001
1.40001
1.40001
1.40001
1.40001
1.40001
1.40001
1.40001
1.40001
1.40001
1.40001
1.40001
1.40001
1.40001
1.40001
1.40001
1.4
1.4
1.40001
1.4001
1.40001
1.40001
1.40001
1.40001
1.40001
1.40001
1.40001
1.40001
1.40001
1.40001
1.40001
1.40001
1.40001
1.40001
1.40001
1.40001
1.40001
1.40001
1.40001
1.40001
1.40001
1.4
1.4
1.4
1.40001
1.40001
1.40001
1.40001
1.40001
1.40001
1.40001
1.40001
1.40001
1.40001
1.40001
1.40001
1.40001
1.40001
1.40001
1.40001
1.40001
1.40001
1.40001
1.40001
1.40001
1.4
1.4
1.4
1.40001
1.40001
1.40001
1.40001
1.40001
1.40001
1.40001
1.40001
1.40001
1.40001
1.40001
1.40001
1.40001
1.40001
1.40001
1.40001
1.40001
1.40001
1.40001
1.40001
1.4
1.4
1.40001
1.40001
1.40001
1.40001
1.40001
1.40001
1.40001
1.40001
1.40001
1.40001
1.40001
1.40001
1.40001
1.40001
1.40001
1.40001
1.40001
1.40001
1.40001
1.40001
1.40001
1.4
1.4
1.4
1.40105
1.42989
1.40001
1.40001
1.40001
1.40001
1.40001
1.40001
1.40001
1.40001
1.40001
1.40001
1.40001
1.40001
1.40001
1.40001
1.40001
1.40001
1.40001
1.4
1.4
1.4
1.40001
1.40203
1.45766
1.85843
1.40001
1.40001
1.40001
1.40001
1.40001
1.40001
1.40001
1.40001
1.40001
1.40001
1.40001
1.40001
1.40001
1.40001
1.40001
1.40001
1.4
1.4
1.4
1.40002
1.40662
1.4972
2.00095
2.76206
1.40001
1.40001
1.40001
1.40001
1.40001
1.40001
1.40001
1.40001
1.40001
1.40001
1.40001
1.40001
1.40001
1.40001
1.40001
1.4
1.4
1.4
1.40033
1.41221
1.60011
2.16935
3.01359
3.18974
1.40001
1.40001
1.40001
1.40001
1.40001
1.40001
1.40001
1.40001
1.40001
1.40001
1.40001
1.40001
1.40001
1.4
1.4
1.4
1.39999
1.40096
1.44774
1.73014
2.45629
3.05358
3.34737
3.35251
1.40001
1.40001
1.40001
1.40001
1.40001
1.40001
1.40001
1.40001
1.40001
1.40001
1.40001
1.40001
1.4
1.4
1.4
1.4
1.40818
1.50363
2.00125
2.72933
3.26324
3.3286
3.32086
3.30007
1.40001
1.40001
1.40001
1.40001
1.40001
1.40001
1.40001
1.40001
1.40001
1.40001
1.4
1.4
1.4
1.39997
1.4011
1.42856
1.70229
2.35356
3.03089
3.25259
3.33077
3.33245
3.30426
3.27416
1.40001
1.40001
1.40001
1.40001
1.40001
1.40001
1.40001
1.40001
1.4
1.4
1.39999
1.4
1.4
1.40909
1.5436
2.01457
2.74858
3.24608
3.41639
3.41104
3.38674
3.34674
3.30985
3.28892
1.40001
1.40001
1.40001
1.40001
1.40001
1.4
1.4
1.4
1.39999
1.39999
1.39992
1.40361
1.45913
1.80878
2.49515
3.1729
3.44013
3.43133
3.40245
3.35704
3.33096
3.30647
3.28962
3.29125
1.40001
1.40001
1.40001
1.4
1.4
1.4
1.4
1.4
1.39991
1.40151
1.43144
1.70041
2.27945
3.08686
3.37455
3.50114
3.5014
3.46731
3.36527
3.30881
3.29606
3.29742
3.30798
3.32079
1.4
1.4
1.4
1.4
1.39999
1.40004
1.39997
1.40156
1.43026
1.64453
2.17885
2.92619
3.43474
3.58104
3.53364
3.4827
3.44514
3.39126
3.33866
3.31534
3.31935
3.33421
3.35962
3.37293
1.4
1.39999
1.40015
1.40009
1.40336
1.42056
1.49788
1.70587
2.20195
2.87475
3.44779
3.70705
3.76139
3.70701
3.61747
3.47945
3.38592
3.35099
3.34067
3.34687
3.36391
3.39156
3.4064
3.40882
1.40188
1.4205
1.47499
1.58633
1.80421
2.1037
2.51225
2.9729
3.384
3.52512
3.66153
3.63215
3.54261
3.4645
3.44169
3.40982
3.38517
3.36545
3.36772
3.38186
3.40074
3.41396
3.4185
3.41841
1.67899
2.08434
2.52595
3.01271
3.41345
3.83032
4.1421
4.41281
4.42083
4.29113
4.03766
3.73011
3.45092
3.3601
3.30514
3.30947
3.32522
3.34689
3.37529
3.39858
3.41629
3.41991
3.4193
3.41588
2.64899
1.9274
1.45055
1.13775
0.936503
0.924914
0.973789
1.03303
1.05349
1.10254
1.16816
1.21511
1.24253
1.28135
1.32534
1.33665
1.33405
1.32682
1.32762
1.33223
1.33105
1.33562
1.34551
1.41246
1.76301
2.57862
3.64456
4.78798
5.76097
5.99566
5.7162
5.21642
4.84162
4.63824
4.50492
4.37618
4.25071
4.15307
4.07052
3.98633
3.89077
3.78146
3.66684
3.55533
3.44618
3.33713
3.23773
3.15391
3.0866
3.0379
2.99481
2.94763
2.89399
2.82851
2.7459
2.64921
2.56163
2.50117
2.46142
2.43559
2.40994
2.37812
2.34072
2.29247
2.23583
2.18376
2.1362
2.08705
2.04107
1.98789
1.96259
1.98174
2.08997
2.36547
2.86089
3.32399
3.68821
3.95827
4.06395
3.98908
3.81447
3.66591
3.61762
3.58257
3.56162
3.53635
3.50123
3.45385
3.37985
3.26846
3.18936
3.16035
3.13984
3.12118
3.11334
3.08003
3.15016
2.70374
2.30572
2.02714
1.72989
1.51363
1.44974
1.37595
1.29968
1.25912
1.24099
1.21966
1.21653
1.22835
1.25637
1.2879
1.29722
1.29677
1.29824
1.30939
1.31519
1.32621
1.39337
1.80012
2.46192
2.72966
3.04671
3.49015
4.17221
4.80425
5.18927
5.13431
4.93552
4.73119
4.55548
4.39076
4.2774
4.19573
4.10757
4.01723
3.92081
3.81208
3.69803
3.58517
3.47485
3.37161
3.28237
3.20652
3.13767
3.07763
3.02832
2.97961
2.92563
2.85816
2.76956
2.67088
2.59057
2.54128
2.5041
2.47257
2.44359
2.40962
2.37024
2.3219
2.2679
2.21258
2.1632
2.11753
2.07118
2.05302
2.08319
2.20532
2.43169
2.67802
2.85053
3.06688
3.30494
3.51443
3.65634
3.69165
3.69457
3.68383
3.65422
3.61828
3.5829
3.54818
3.50938
3.46154
3.39212
3.29584
3.21302
3.18102
3.16184
3.14299
3.13155
3.09592
3.34294
3.13755
2.78918
2.46652
2.20063
1.89895
1.67359
1.55675
1.43835
1.30957
1.28324
1.27238
1.25026
1.24066
1.24443
1.26346
1.28183
1.28164
1.2852
1.30544
1.32991
1.43291
1.8737
2.54695
2.88175
2.92788
2.92104
2.93763
3.07197
3.6229
4.47418
4.96279
4.98916
4.86337
4.6004
4.40222
4.26513
4.14515
4.02255
3.90996
3.82972
3.74737
3.65399
3.5543
3.45896
3.36644
3.27412
3.18938
3.11053
3.0345
2.96568
2.90871
2.85596
2.79699
2.72356
2.65173
2.59968
2.54794
2.48921
2.43377
2.39501
2.36146
2.3216
2.27347
2.22415
2.17286
2.13842
2.11354
2.12121
2.18638
2.36448
2.60258
2.8166
2.89549
2.86011
2.85052
2.89883
3.02723
3.21153
3.45342
3.58031
3.65799
3.6709
3.65159
3.61175
3.55747
3.50079
3.44434
3.38373
3.31598
3.23667
3.16178
3.12954
3.11251
3.09985
3.06471
3.36793
3.30104
3.10994
2.81409
2.57063
2.30492
1.98626
1.83311
1.74478
1.57057
1.44986
1.43237
1.40162
1.31179
1.27598
1.28328
1.27478
1.26205
1.26722
1.28687
1.43763
1.9041
2.62196
2.91377
2.90837
2.87776
2.82178
2.7518
2.69517
2.75346
3.1202
3.93139
4.56452
4.65187
4.60389
4.47712
4.30373
4.13315
3.98382
3.85195
3.77298
3.71854
3.65328
3.57287
3.48297
3.38484
3.27915
3.19475
3.11823
3.03993
2.95925
2.88231
2.81683
2.76114
2.71643
2.67263
2.62243
2.56434
2.50062
2.43201
2.37514
2.33496
2.29496
2.25456
2.21091
2.17391
2.14844
2.17857
2.33679
2.59099
2.81851
2.96509
2.98073
2.95935
2.87975
2.79692
2.77596
2.78566
2.85024
3.04051
3.27464
3.48558
3.56578
3.56525
3.54944
3.52607
3.48245
3.4269
3.37788
3.32921
3.26076
3.1688
3.11944
3.10129
3.08526
3.04912
3.33965
3.32984
3.25553
3.07185
2.82756
2.61794
2.35695
2.06558
1.9528
1.85477
1.68453
1.55288
1.50668
1.42695
1.32482
1.29606
1.28098
1.26694
1.28703
1.47898
2.02784
2.62189
2.93859
2.92547
2.86381
2.76216
2.67416
2.61269
2.59106
2.55098
2.5651
2.75769
3.3567
4.04435
4.46018
4.42444
4.29841
4.11194
3.96685
3.84696
3.75388
3.6683
3.57502
3.47539
3.38485
3.32847
3.28552
3.22865
3.16
3.07301
2.97708
2.88145
2.78405
2.70755
2.65917
2.6282
2.6079
2.5837
2.53817
2.46937
2.38946
2.31927
2.26779
2.23741
2.20624
2.20352
2.27188
2.48166
2.78707
2.98033
3.06191
3.06132
3.03333
2.96327
2.86346
2.78737
2.75985
2.75398
2.75643
2.79171
2.92725
3.10983
3.33052
3.45931
3.48198
3.46733
3.44372
3.40996
3.37146
3.33149
3.28222
3.21085
3.12892
3.08086
3.06625
3.03366
3.31017
3.31604
3.30221
3.22286
3.05063
2.82962
2.63361
2.41392
2.18098
2.03945
1.90754
1.7643
1.68118
1.60606
1.46547
1.37941
1.37593
1.41409
1.65174
2.24043
2.76501
2.98796
2.96839
2.89157
2.7895
2.68697
2.60823
2.55245
2.5156
2.46746
2.41174
2.36115
2.42902
2.8017
3.55628
4.05791
4.14494
4.10921
4.00165
3.88381
3.75298
3.62979
3.51973
3.4212
3.33719
3.27585
3.21964
3.16752
3.11427
3.06015
2.99053
2.8751
2.73929
2.67011
2.64239
2.62072
2.59208
2.55181
2.50589
2.44929
2.37914
2.30168
2.27048
2.24962
2.27604
2.40618
2.66248
2.95576
3.14176
3.16218
3.14461
3.11117
3.0353
2.93614
2.84465
2.79312
2.76943
2.75567
2.74199
2.74019
2.74605
2.79631
2.89039
3.07629
3.24129
3.31091
3.35955
3.39358
3.38673
3.35799
3.30998
3.23802
3.14522
3.07364
3.05761
3.02628
3.29542
3.30454
3.30071
3.27679
3.19081
3.04058
2.83959
2.63227
2.44673
2.2954
2.12239
1.91679
1.82604
1.77383
1.67545
1.53828
1.55985
1.85835
2.52901
3.02064
3.14032
3.07844
2.95695
2.85351
2.76068
2.67044
2.59805
2.54095
2.4878
2.42415
2.35564
2.28357
2.22386
2.23927
2.43763
3.00472
3.62166
3.97633
3.9928
3.93261
3.77371
3.61466
3.48821
3.38171
3.28877
3.22522
3.17778
3.13419
3.09136
3.04452
2.9739
2.86014
2.73442
2.65971
2.62355
2.59379
2.55881
2.52799
2.49425
2.44873
2.38774
2.31981
2.30952
2.37316
2.60355
2.88729
3.11621
3.22963
3.23292
3.203
3.15879
3.10217
3.01542
2.90426
2.84264
2.8223
2.79977
2.77502
2.75165
2.73226
2.71443
2.68773
2.66092
2.69595
2.83835
3.04915
3.2162
3.32558
3.37567
3.36832
3.33425
3.27382
3.19106
3.08983
3.04468
3.00726
3.2754
3.28399
3.29417
3.29094
3.25518
3.16354
3.03086
2.85069
2.61476
2.48176
2.35634
2.19148
1.96597
1.88569
1.83809
1.90805
2.30723
3.00915
3.42634
3.39621
3.28144
3.14604
3.01431
2.90585
2.80773
2.7204
2.64193
2.57113
2.49151
2.41736
2.34306
2.2625
2.18999
2.15953
2.13543
2.20646
2.55357
3.19943
3.69505
3.77984
3.75235
3.64462
3.51223
3.38354
3.27877
3.20567
3.1544
3.10854
3.06002
3.00527
2.93757
2.8476
2.73744
2.65062
2.60974
2.57501
2.53628
2.49722
2.45181
2.42514
2.38914
2.40323
2.53035
2.80592
3.09151
3.24837
3.33329
3.33941
3.30352
3.24734
3.18139
3.10188
2.99658
2.89836
2.86244
2.84344
2.82032
2.79232
2.76418
2.73472
2.70487
2.66799
2.61772
2.56986
2.58948
2.70959
2.92136
3.12446
3.25985
3.31884
3.31415
3.29479
3.23349
3.12164
3.04057
2.99463
3.28337
3.28489
3.29221
3.28979
3.27995
3.23843
3.14165
3.00418
2.8397
2.63103
2.49071
2.36691
2.19599
2.11448
2.26898
2.81197
3.5451
3.79897
3.73271
3.56089
3.38915
3.24836
3.12708
3.00918
2.89043
2.78033
2.69084
2.61777
2.54134
2.46189
2.37148
2.2674
2.19021
2.14501
2.10742
2.05972
2.06685
2.24667
2.73473
3.27564
3.59389
3.58296
3.5341
3.40116
3.28085
3.19333
3.13807
3.09296
3.03969
2.9729
2.89872
2.81885
2.73838
2.65832
2.59759
2.54914
2.51319
2.48182
2.46093
2.46066
2.53189
2.7604
3.08228
3.30009
3.32599
3.35409
3.36022
3.33248
3.2932
3.24787
3.18442
3.09405
2.98328
2.90924
2.88715
2.86681
2.84125
2.81313
2.78345
2.74786
2.70471
2.65122
2.59467
2.55485
2.53927
2.54702
2.62923
2.8174
3.03666
3.19717
3.26838
3.26846
3.24097
3.15551
3.05866
2.99611
3.33197
3.31945
3.31707
3.31224
3.30161
3.27765
3.22415
3.12198
2.98881
2.81273
2.66298
2.47458
2.49797
2.81937
3.53796
4.15065
4.24344
4.13163
3.92781
3.72311
3.53932
3.38049
3.24108
3.11208
2.99174
2.87705
2.77274
2.6738
2.57822
2.48417
2.39386
2.29829
2.22504
2.16326
2.11193
2.05339
2.00404
1.96988
2.02919
2.31949
2.85405
3.28358
3.40572
3.3794
3.29466
3.20929
3.13509
3.07174
3.00798
2.93927
2.87396
2.80589
2.73191
2.649
2.57886
2.53153
2.5151
2.50434
2.55611
2.75477
3.04621
3.38079
3.50485
3.5182
3.47127
3.39942
3.35227
3.31318
3.27736
3.24376
3.19125
3.1033
2.99834
2.93978
2.91219
2.88664
2.86032
2.83339
2.80423
2.76787
2.71714
2.64707
2.58387
2.55071
2.53683
2.52849
2.53015
2.57657
2.70856
2.90626
3.07584
3.17147
3.18269
3.15476
3.08265
3.01132
3.25324
3.29916
3.33127
3.3334
3.32102
3.30181
3.26698
3.21146
3.10064
2.97515
2.8352
2.9483
3.53468
4.32646
4.70809
4.66473
4.47706
4.27119
4.07832
3.88965
3.7002
3.51466
3.34332
3.18957
3.05823
2.9465
2.85095
2.75653
2.65596
2.54872
2.43929
2.33067
2.24402
2.1791
2.12465
2.06734
2.00413
1.9568
1.90506
1.90757
2.04122
2.4377
2.91292
3.2454
3.28181
3.24766
3.14415
3.04841
2.96755
2.89955
2.84751
2.79458
2.72755
2.64551
2.58478
2.54434
2.55719
2.68014
3.01082
3.38058
3.61111
3.63227
3.59488
3.54583
3.49058
3.42923
3.37128
3.3204
3.27383
3.23692
3.19187
3.11973
3.03566
2.97699
2.93919
2.90866
2.88102
2.85373
2.82486
2.78955
2.73417
2.65323
2.59075
2.56314
2.54514
2.5293
2.52019
2.50516
2.5158
2.5812
2.73822
2.91907
3.07201
3.11044
3.09204
3.03517
3.25641
3.36256
3.34321
3.30959
3.30177
3.3014
3.2903
3.26271
3.18679
3.19536
3.54976
4.39316
5.14865
5.34558
5.22904
4.94016
4.65781
4.42507
4.22051
4.02389
3.8297
3.63991
3.46295
3.3003
3.15383
3.02315
2.90597
2.79605
2.6922
2.59657
2.49936
2.40048
2.30469
2.2106
2.12488
2.06108
2.01221
1.96444
1.90545
1.86622
1.82928
1.87196
2.11053
2.58898
3.02258
3.13476
3.11518
3.03978
2.95046
2.88341
2.82491
2.77109
2.71365
2.66274
2.61955
2.66212
2.8891
3.2749
3.63211
3.81741
3.83744
3.78236
3.67305
3.56038
3.48787
3.44312
3.3975
3.34601
3.28987
3.2363
3.18569
3.13189
3.07165
3.00905
2.95979
2.92489
2.89651
2.86883
2.83931
2.80169
2.74272
2.6713
2.62312
2.59251
2.56318
2.53759
2.51462
2.49467
2.46804
2.44625
2.47455
2.58707
2.77154
2.94135
3.05079
3.04792
2.65999
3.18988
3.24213
3.28806
3.31548
3.32576
3.3207
3.32984
3.47592
4.21383
5.35095
5.78832
5.71289
5.56468
5.35095
5.12584
4.87563
4.62437
4.3843
4.15737
3.94322
3.74135
3.55752
3.38946
3.23244
3.08783
2.96221
2.8542
2.75037
2.64129
2.52584
2.4151
2.32655
2.25761
2.1811
2.09519
2.01224
1.94953
1.90916
1.8587
1.80988
1.76201
1.76795
1.88623
2.24689
2.67662
2.94537
2.98872
2.9602
2.88639
2.80333
2.7624
2.72824
2.76159
2.88147
3.22208
3.59373
3.83843
3.87241
3.86611
3.84527
3.80068
3.71782
3.61465
3.53691
3.48044
3.42807
3.37127
3.30525
3.23674
3.18168
3.14087
3.09332
3.03274
2.97643
2.932
2.90014
2.87447
2.84802
2.81043
2.7525
2.68997
2.64618
2.61536
2.58678
2.55627
2.52539
2.49528
2.45867
2.41832
2.38224
2.39469
2.47505
2.64458
2.84683
2.98938
1.73311
2.43937
2.98246
3.31809
3.31738
3.32362
3.44953
3.8675
4.87965
6.04083
6.49836
6.39188
6.01677
5.66823
5.44481
5.25059
5.01646
4.75156
4.49615
4.26345
4.04616
3.84285
3.65359
3.47669
3.31129
3.1539
3.00032
2.862
2.75729
2.67572
2.58848
2.49202
2.38286
2.26358
2.16951
2.10094
2.04332
1.97673
1.90679
1.86847
1.83739
1.7788
1.72421
1.67425
1.71236
1.92674
2.35153
2.71028
2.85398
2.8386
2.80192
2.81995
2.98328
3.26255
3.60205
3.97844
4.11219
4.07702
3.98747
3.87724
3.7995
3.75483
3.69762
3.63214
3.57271
3.51446
3.45602
3.39417
3.3236
3.25231
3.19041
3.1369
3.0841
3.03576
2.9937
2.95171
2.90986
2.87006
2.8314
2.79349
2.75439
2.71426
2.6765
2.63365
2.59704
2.578
2.55657
2.52129
2.47219
2.41208
2.37218
2.34649
2.34756
2.40497
2.54227
2.79438
1.42193
1.65253
2.18839
2.97876
3.13236
3.5993
4.62395
5.49942
6.42731
6.65303
6.6129
6.44281
6.18826
5.86853
5.58699
5.33662
5.07879
4.80351
4.54006
4.31574
4.11585
3.91721
3.7277
3.55232
3.38774
3.22119
3.05255
2.911
2.79178
2.68325
2.58121
2.48325
2.39364
2.29697
2.20604
2.12008
2.04625
1.98224
1.92624
1.87548
1.81188
1.74407
1.67456
1.63535
1.60489
1.60745
1.72395
2.07328
2.52364
2.72397
2.86941
3.25177
3.72629
3.98221
4.15041
4.19619
4.17916
4.09596
3.99119
3.90712
3.81917
3.74356
3.68546
3.63476
3.58819
3.53779
3.47763
3.4064
3.33094
3.25992
3.1971
3.14489
3.09303
3.04378
3.01052
2.98196
2.94198
2.88861
2.82793
2.77453
2.74405
2.72487
2.69962
2.66446
2.62509
2.58033
2.53623
2.49421
2.45583
2.4198
2.37994
2.3398
2.32211
2.31614
2.33891
2.52048
1.4004
1.41854
1.52906
2.21554
3.23997
4.57785
5.86103
6.59622
7.04707
6.92626
6.63794
6.41672
6.25133
6.01601
5.69795
5.3664
5.09585
4.87062
4.63821
4.39845
4.17356
3.94864
3.74401
3.55718
3.37238
3.23211
3.13621
3.02033
2.88219
2.74362
2.62992
2.52657
2.42313
2.29992
2.19427
2.15102
2.10562
2.05333
1.98637
1.90165
1.81437
1.74535
1.68765
1.6325
1.58839
1.55404
1.55952
1.65764
1.99648
2.64337
3.22745
3.87633
4.276
4.44204
4.42582
4.34854
4.18216
4.04996
3.97521
3.92393
3.8514
3.75537
3.68823
3.64195
3.59673
3.5412
3.48957
3.42844
3.35565
3.28079
3.20019
3.13391
3.09352
3.06291
3.02821
2.97816
2.92493
2.87315
2.82097
2.78117
2.75397
2.72796
2.70079
2.67353
2.63791
2.5848
2.52911
2.48772
2.45256
2.41185
2.37075
2.33866
2.31611
2.29021
2.29074
2.36141
1.40042
1.4081
1.56812
2.05653
3.37025
4.7669
5.65292
6.66873
7.05092
6.78786
6.58223
6.46107
6.33592
6.13394
5.80397
5.44214
5.12105
4.83944
4.58276
4.33169
4.12558
3.98092
3.82161
3.63494
3.44834
3.26825
3.09305
2.94776
2.81719
2.68197
2.59206
2.55106
2.47919
2.36051
2.2301
2.12016
2.04351
1.98911
1.93149
1.85737
1.8091
1.77975
1.73463
1.67167
1.60454
1.56153
1.56636
1.63977
1.9331
2.54035
3.31928
3.86306
4.18333
4.46149
4.43368
4.27218
4.12443
4.04626
3.99406
3.94725
3.87121
3.77408
3.7031
3.64975
3.5968
3.52882
3.44895
3.37789
3.31738
3.26219
3.20559
3.15453
3.1104
3.06926
3.02955
2.97723
2.91454
2.8714
2.84017
2.81205
2.78364
2.75676
2.73267
2.70642
2.66608
2.6
2.5253
2.47852
2.44773
2.41155
2.37898
2.35082
2.32235
2.29418
2.29274
2.34552
1.42614
1.59115
2.23223
2.81735
3.26247
3.81467
4.45557
5.59862
6.26725
6.48506
6.53902
6.47177
6.26424
5.95868
5.67175
5.39683
5.10597
4.81235
4.54509
4.31447
4.09896
3.88129
3.68302
3.50962
3.35238
3.20773
3.06169
2.91953
2.79219
2.69358
2.60771
2.50186
2.39824
2.30774
2.21407
2.11932
2.03788
1.96735
1.90943
1.86166
1.80259
1.73551
1.68313
1.64836
1.60942
1.61997
1.75774
2.11882
2.5193
2.67381
2.96169
3.26068
3.60792
4.0232
4.09287
4.11908
4.13738
4.11833
4.04402
3.95159
3.85824
3.78484
3.72618
3.66633
3.59697
3.51102
3.42515
3.35097
3.30075
3.27387
3.24599
3.20578
3.15578
3.09813
3.03451
2.97188
2.90907
2.85222
2.8113
2.7853
2.76175
2.73684
2.71105
2.68295
2.64371
2.58212
2.50677
2.45072
2.42872
2.41678
2.39966
2.37448
2.34496
2.31908
2.33418
2.4897
1.7352
2.36859
3.0531
3.25796
3.3067
3.33241
3.42396
3.87011
4.90234
5.99414
6.49504
6.44041
6.10636
5.74171
5.49536
5.26845
5.00616
4.7241
4.45699
4.21789
3.99891
3.79708
3.62449
3.47675
3.33673
3.18871
3.03602
2.89294
2.76713
2.65918
2.56186
2.45402
2.35199
2.29204
2.23972
2.16682
2.07997
1.98827
1.90943
1.84708
1.78567
1.72905
1.68446
1.66573
1.71621
1.97722
2.39961
2.7682
2.85537
2.8186
2.80021
2.81631
2.91783
3.22757
3.62942
3.93725
4.12991
4.13194
4.03642
3.89988
3.80459
3.7563
3.71126
3.6544
3.5787
3.49167
3.41235
3.34359
3.28785
3.24915
3.2138
3.17587
3.13313
3.07798
3.01146
2.95226
2.89957
2.85084
2.81025
2.78003
2.75806
2.73959
2.7185
2.6835
2.63112
2.56599
2.49763
2.44801
2.41504
2.39128
2.37448
2.3686
2.37834
2.42573
2.54506
2.75544
2.5863
3.14717
3.29654
3.31996
3.33791
3.34402
3.32932
3.32719
3.48875
4.23314
5.3364
5.80391
5.76767
5.6128
5.3777
5.10512
4.82935
4.57087
4.33385
4.1145
3.91301
3.73641
3.57988
3.43048
3.28341
3.13807
2.99395
2.85653
2.72672
2.60127
2.49193
2.41106
2.33876
2.25162
2.16752
2.10649
2.04427
1.97005
1.89307
1.82947
1.78812
1.73742
1.73892
1.86438
2.23089
2.70477
2.97227
2.98982
2.95079
2.86088
2.77396
2.7494
2.7322
2.76563
2.94023
3.25604
3.67468
3.88108
3.85753
3.84097
3.81555
3.76648
3.69517
3.61602
3.54431
3.4781
3.40883
3.34333
3.29602
3.25576
3.21266
3.1672
3.11716
3.05373
2.98421
2.93126
2.89582
2.86533
2.83347
2.80253
2.77093
2.73558
2.69703
2.65197
2.60237
2.55583
2.51582
2.47127
2.41653
2.39123
2.39055
2.41584
2.51956
2.69847
2.90274
2.98516
3.19276
3.35196
3.35351
3.34195
3.32075
3.31191
3.28823
3.25924
3.18525
3.19161
3.515
4.37732
5.15217
5.3411
5.2167
4.90799
4.62488
4.39405
4.19441
4.00924
3.83213
3.6633
3.50414
3.35391
3.21198
3.07208
2.93113
2.794
2.66569
2.54911
2.45571
2.37696
2.29462
2.20771
2.1277
2.07325
2.03392
1.98808
1.91066
1.85508
1.81213
1.85105
2.10433
2.57444
3.00715
3.1532
3.13482
3.04644
2.92969
2.85005
2.79053
2.75133
2.71493
2.69666
2.66691
2.71394
2.91344
3.26545
3.58864
3.76362
3.79374
3.74955
3.66484
3.58728
3.53509
3.48196
3.41528
3.34088
3.27549
3.22685
3.18119
3.13296
3.0805
3.02571
2.97623
2.92901
2.88043
2.83687
2.80569
2.78217
2.7524
2.71078
2.66561
2.62461
2.58602
2.54618
2.50363
2.45416
2.42043
2.41746
2.467
2.61563
2.83708
3.03066
3.10098
3.0824
3.2414
3.27752
3.32032
3.33862
3.32853
3.30632
3.26083
3.20153
3.09438
2.97706
2.83158
2.93782
3.51865
4.31989
4.67623
4.63031
4.4539
4.25425
4.06328
3.88548
3.71476
3.54829
3.39009
3.24117
3.1041
2.97326
2.84431
2.72109
2.61006
2.50072
2.39783
2.31316
2.24824
2.19473
2.1429
2.09067
2.02632
1.96735
1.90927
1.90633
2.02942
2.41812
2.91844
3.23976
3.2816
3.2502
3.16162
3.04839
2.93867
2.87179
2.83592
2.79224
2.74398
2.6916
2.6416
2.58859
2.58194
2.66168
2.94463
3.27965
3.53647
3.59849
3.61362
3.59789
3.54867
3.48465
3.40497
3.32437
3.25252
3.19621
3.14387
3.0935
3.04749
3.00685
2.96798
2.92433
2.87815
2.83931
2.80753
2.76493
2.71421
2.66876
2.63211
2.6011
2.5736
2.54642
2.51658
2.46735
2.46222
2.52844
2.70427
2.91547
3.11032
3.17576
3.17725
3.12857
3.33133
3.3132
3.31694
3.31677
3.30666
3.27851
3.21756
3.11433
2.98655
2.81455
2.6632
2.47338
2.49505
2.80859
3.51414
4.13875
4.25192
4.1332
3.93062
3.73451
3.56076
3.40853
3.266
3.12431
2.98903
2.86147
2.73873
2.6248
2.53245
2.44796
2.37113
2.30802
2.25524
2.19062
2.12991
2.06426
2.03001
1.98592
2.028
2.30997
2.80914
3.24664
3.3904
3.39801
3.3471
3.26397
3.1658
3.05836
2.96335
2.89508
2.84167
2.78851
2.73831
2.68556
2.63674
2.5811
2.55064
2.49922
2.5136
2.6668
2.98684
3.31803
3.51444
3.56617
3.54117
3.46781
3.38538
3.31328
3.23848
3.16787
3.10589
3.05806
3.02281
2.99174
2.96122
2.92867
2.89264
2.8468
2.78106
2.70982
2.66017
2.63016
2.60581
2.5872
2.57216
2.55861
2.53747
2.54581
2.6287
2.8038
2.98307