/*--------------------------------*- C++ -*----------------------------------*\
  =========                 |
  \\      /  F ield         | OpenFOAM: The Open Source CFD Toolbox
   \\    /   O peration     | Website:  https://openfoam.org
    \\  /    A nd           | Version:  7
     \\/     M anipulation  |
\*---------------------------------------------------------------------------*/
FoamFile
{
    version     2.0;
    format      ascii;
    class       volScalarField;
    location    "3.1";
    object      T;
}
// * * * * * * * * * * * * * * * * * * * * * * * * * * * * * * * * * * * * * //

dimensions      [0 0 0 1 0 0 0];

internalField   nonuniform List<scalar> 
4608
(
1
1
1
1
1
1
1
1
1
1
1
1
1
1
1
1
1
1
1
1
1
1
1
1
1
1
1
1
1
1
1
1
1
1
1
1
1
1
1
1
1
1
1
1
1
1
1
1
1
1
1
1
1
1
1
1
1
1
1
1
1
1
1
1
1
1
1
1
1
1
1
1
1
1
1
1
1
1
1
1
1
1
1
1
1
1
1
1
1
1
1
1
1
1
1
1
1
1
1
1
1
1
1
1
1
1
1
1
1
1
1
1
1
1
1
1
1
1
1
1
1
1
1
1
1
1
1
1
1
1
1
1
1
1
1
1
1
1
1
1
1
1
1
1
1
1
1
1
1
1
1
1
1
1
1
1
1
1
1
1
1
1
1
1
1
1
1
1
1
1
1
1
1
1
1
1
1
1
1
1
1
1
1
1
1
1
1
1
1
1
1
1
1
1
1
1
1
1
1
1
1
1
1
1
1
1
1
1
1
1
1
1
1
1
1
1
1
1
1
1
1
1
1
1
1
1
1
1
1
1
1
1
1
1
1
1
1
1
1
1
1
1
1
1
1
1
1
1
1
1
1
1
1
1
1
1
1
1
1
1
1
1
1
1
1
1
1
1
1
1
1
1
1
1
1
1
1
1
1
1
1
1
1
1
1
1
1
1
1
1
1
1
1
1
1
1
1
1
1
1
1
1
1
1
1
1
1
1
1
1
1
1
1
1
1
1
1
1
1
1
1
1
1
1
1
1
1
1
1
1
1
1
1
1
1
1
1
1
1
1
1
1
1
1
1
1
1
1
1
1
1
1
1
1
1
1
1
1
1
1
1
1
1
1
1
1
1
1
1
1
1
1
1
1
1
1
1
1
1
1
1
1
1
1
1
1
1
1
1
1
1
1
1
1
1
1
1
1
1
1
1
1
1
1
1
1
1
1
1
1
1
1
1
1
1
1
1
1
1
1
1
1
1
1
1
1
1
1
1
1
1
1
1
1
1
1
1
1
1
1
1
1
1
1
1
1
1
1
1
1
1
1
1
1
1
1
1
1
1
1
1
1
1
1
1
1
1
1
1
1
1
1
1
1
1
1
1
1
1
1
1
1
1
1
1
1
1
1
1
1
1
1
1
1
1
1
1
1
1
1
1
1
1
1
1
1
1
1
1
1
1
1
1
1
1
1
1
1
1
1
1
1
1
1
1
1
1
1
1
1
1
1
1
1
1
1
1
1
1
1
1
1
1
1
1
1
1
1
1
1
1
1
1
1
1
1
1
1
1
1
1
1
1
1
1
1
1
1
1
1
1
1
1
1
1
1
1
1
1
1
1
1
1
1
1
1
1
1
1
1
1
1
1
1
1
1
1
1
1
1
1
1
1
1
1
1
1
1
1
1
1
1
1
1
1
1
1
1
1
1
1
1
1
1
1
1
1
1
1
1
1
1
1
1
1
1
1
1
1
1
1
1
1
1
1
1
1
1
1
1
1
1
1
1
1
1
1
1
1
1
1
1
1
1
1
1
1
1
1
1
1
1
1
1
1
1
1
1
1
1
1
1
1
1
1
1
1
1
1
1
1
1
1
1
1
1
1
1
1
1
1
1
1
1
1
1
1
1
1
1
1
1
1
1
1
1
1
1
1
1
1
1
1
1
1
1
1
1
1
1
1
1
1
1
1
1
1
1
1
1
1
1
1
1
1
1
1
1
1
1
1
1
1
1
1
1
1
1
1
1
1
1
1
1
1
1
1
1
1.07894
1.18117
1.28509
1.39443
1.48491
1.57304
1.64092
1.6815
1.69735
1.68066
1.63848
1.58757
1.54073
1.52409
1.51346
1.51452
1.5177
1.52239
1.52846
1.5333
1.53685
1.53752
1.53732
1.53682
1.00064
1.00744
1.02867
1.07121
1.14746
1.23003
1.32318
1.407
1.48383
1.51536
1.55358
1.56601
1.55856
1.54931
1.54536
1.53871
1.53358
1.53158
1.53245
1.53524
1.53832
1.54022
1.54034
1.54103
0.999999
0.999996
1.00005
1.00004
1.00129
1.0078
1.0377
1.11541
1.27241
1.44771
1.57122
1.62241
1.62127
1.60842
1.59105
1.56564
1.54961
1.5443
1.54164
1.54226
1.54399
1.54721
1.54793
1.5492
1
1
1
1
0.999995
1.00001
0.999984
1.00061
1.0129
1.11209
1.30768
1.49507
1.6092
1.60952
1.59591
1.58935
1.58518
1.57639
1.56524
1.55707
1.55421
1.55449
1.55593
1.55818
1
1
1
1
1
1
0.999998
0.999999
0.99996
1.00059
1.01414
1.13377
1.34335
1.54667
1.5973
1.61987
1.61923
1.61147
1.59046
1.57618
1.56941
1.56439
1.56482
1.56792
1
1
1
1
1
1
1
1
0.999996
0.999997
0.99996
1.00138
1.0259
1.17774
1.40105
1.56751
1.61594
1.61137
1.60451
1.59547
1.58816
1.57979
1.57608
1.57763
1
1
1
1
1
1
1
1
1
1
0.999996
0.999998
0.999982
1.00355
1.06337
1.24314
1.45728
1.57239
1.60862
1.60807
1.60337
1.59533
1.58787
1.58357
1
1
1
1
1
1
1
1
1
1
1
1
0.999999
0.999986
1.00036
1.0112
1.12801
1.33947
1.51506
1.56797
1.5897
1.5898
1.58451
1.57989
1
1
1
1
1
1
1
1
1
1
1
1
1
0.999998
0.999999
0.99999
1.00298
1.04173
1.22904
1.43767
1.56584
1.58111
1.58209
1.57892
1
1
1
1
1
1
1
1
1
1
1
1
1
1
1
0.999999
0.999992
1.00031
1.01781
1.12848
1.36458
1.50653
1.57141
1.58392
1
1
1
1
1
1
1
1
1
1
1
1
1
1
1
1
0.999999
0.999998
1.00008
1.00446
1.07754
1.276
1.4831
1.53832
1
1
1
1
1
1
1
1
1
1
1
1
1
1
1
1
1
1
0.999999
1
1.00209
1.03839
1.21198
1.41529
1
1
1
1
1
1
1
1
1
1
1
1
1
1
1
1
1
1
1
1
0.999999
1.00063
1.0206
1.15334
1
1
1
1
1
1
1
1
1
1
1
1
1
1
1
1
1
1
1
1
1
0.999999
1.0003
1.01019
1
1
1
1
1
1
1
1
1
1
1
1
1
1
1
1
1
1
1
1
1
1
1
1.00002
1
1
1
1
1
1
1
1
1
1
1
1
1
1
1
1
1
1
1
1
1
1
1
0.999999
1
1
1
1
1
1
1
1
1
1
1
1
1
1
1
1
1
1
1
1
1
1
1
0.999998
1
1
1
1
1
1
1
1
1
1
1
1
1
1
1
1
1
1
1
1
1
1
1
0.999989
1
1
1
1
1
1
1
1
1
1
1
1
1
1
1
1
1
1
1
1
1
0.999999
1.00031
1.01049
1
1
1
1
1
1
1
1
1
1
1
1
1
1
1
1
1
1
1
1
0.999999
1.00064
1.02122
1.16611
1
1
1
1
1
1
1
1
1
1
1
1
1
1
1
1
1
1
0.999999
1
1.00221
1.03665
1.21822
1.4264
1
1
1
1
1
1
1
1
1
1
1
1
1
1
1
1
0.999999
0.999998
1.00009
1.00437
1.07773
1.27394
1.48983
1.53508
1
1
1
1
1
1
1
1
1
1
1
1
1
1
1
0.999999
0.999992
1.00031
1.01803
1.12878
1.35927
1.51204
1.57181
1.58305
1
1
1
1
1
1
1
1
1
1
1
1
1
0.999998
0.999999
0.99999
1.00297
1.04163
1.2301
1.43746
1.56399
1.58209
1.58305
1.57956
1
1
1
1
1
1
1
1
1
1
1
1
0.999999
0.999986
1.00036
1.01121
1.12785
1.33943
1.51612
1.56735
1.58913
1.59022
1.5853
1.57995
1
1
1
1
1
1
1
1
1
1
0.999996
0.999998
0.999982
1.00355
1.06341
1.24314
1.45696
1.57284
1.60864
1.60782
1.60313
1.59541
1.58789
1.58367
1
1
1
1
1
1
1
1
0.999996
0.999997
0.99996
1.00138
1.0259
1.17772
1.4012
1.56737
1.6159
1.61145
1.60455
1.59538
1.5881
1.57988
1.57601
1.57763
1
1
1
1
1
1
0.999998
0.999999
0.99996
1.00059
1.01414
1.13377
1.34331
1.54673
1.59735
1.61983
1.61919
1.61144
1.59062
1.57615
1.5694
1.56438
1.56477
1.56793
1
1
1
1
0.999995
1.00001
0.999984
1.00061
1.0129
1.11209
1.30768
1.49507
1.60919
1.60954
1.59592
1.58934
1.58514
1.57635
1.56534
1.55701
1.5542
1.55448
1.55594
1.55818
0.999999
0.999996
1.00005
1.00004
1.00129
1.00781
1.0377
1.11541
1.27241
1.44771
1.57121
1.62241
1.62128
1.60842
1.59106
1.56567
1.54957
1.54428
1.54166
1.54226
1.54399
1.5472
1.54792
1.54918
1.00064
1.00744
1.02867
1.0712
1.14747
1.23004
1.32317
1.40701
1.48383
1.51536
1.55354
1.56604
1.55857
1.54928
1.54538
1.53874
1.53356
1.53157
1.53245
1.53526
1.53832
1.54022
1.54034
1.54102
1.07894
1.18118
1.28508
1.39444
1.48492
1.57302
1.64092
1.68152
1.69736
1.68066
1.63847
1.58756
1.54071
1.52409
1.51348
1.51452
1.5177
1.5224
1.52848
1.53333
1.53687
1.53753
1.53732
1.53681
1.39412
1.22958
1.11002
1.02573
0.964413
0.965108
1.0037
1.03529
1.03814
1.05081
1.0699
1.08318
1.09155
1.10414
1.11355
1.11424
1.113
1.11071
1.11139
1.11085
1.10813
1.10784
1.11077
1.1373
1.28124
1.52815
1.75778
1.96946
2.13266
2.18373
2.14335
2.06586
2.00538
1.97202
1.94826
1.92466
1.90242
1.8854
1.87094
1.85585
1.83835
1.81806
1.79628
1.7741
1.75148
1.72871
1.70773
1.68974
1.67553
1.6657
1.65714
1.64734
1.63542
1.62011
1.60047
1.57742
1.55663
1.54222
1.53247
1.52587
1.51921
1.511
1.50155
1.48946
1.47494
1.461
1.4478
1.43398
1.42092
1.40623
1.40053
1.40659
1.43948
1.51672
1.64083
1.74271
1.81698
1.86812
1.89259
1.88024
1.84863
1.82032
1.80985
1.80196
1.79675
1.79075
1.78313
1.77357
1.75915
1.73732
1.72128
1.71509
1.71028
1.70583
1.70384
1.69616
1.49374
1.40657
1.3208
1.25671
1.17415
1.10634
1.10189
1.08874
1.06466
1.05722
1.05481
1.05421
1.05553
1.06002
1.06763
1.07559
1.08015
1.08169
1.0837
1.08792
1.08809
1.09195
1.11845
1.27974
1.49514
1.55381
1.62459
1.72309
1.85753
1.96963
2.04642
2.04241
2.01718
1.98713
1.95744
1.92822
1.90853
1.89394
1.87826
1.86208
1.84452
1.82471
1.80357
1.78132
1.75851
1.73681
1.71792
1.70179
1.68739
1.67501
1.66489
1.65487
1.64312
1.62767
1.60692
1.58329
1.56405
1.55249
1.54359
1.53548
1.52788
1.51907
1.50914
1.49718
1.48359
1.46909
1.45551
1.44273
1.42906
1.42563
1.43507
1.47095
1.53389
1.59671
1.63842
1.68858
1.74134
1.78485
1.81271
1.82136
1.8247
1.82338
1.81786
1.81018
1.80239
1.79471
1.78614
1.77628
1.76273
1.74399
1.72739
1.72037
1.71553
1.71094
1.7081
1.69996
1.53396
1.49388
1.42515
1.3576
1.2943
1.21865
1.16205
1.12913
1.09329
1.0544
1.04754
1.04584
1.04034
1.03799
1.0393
1.04587
1.05303
1.05418
1.05638
1.06373
1.07255
1.11263
1.27623
1.4886
1.57845
1.58744
1.58561
1.59
1.6253
1.75903
1.93258
2.02546
2.03392
2.01301
1.96916
1.93438
1.90854
1.88686
1.86509
1.84455
1.82944
1.81423
1.79679
1.77722
1.75778
1.73789
1.71736
1.69903
1.68243
1.66657
1.65214
1.63975
1.62809
1.61463
1.59747
1.58012
1.56711
1.55438
1.54013
1.52651
1.51659
1.50785
1.49772
1.48562
1.47303
1.45922
1.44916
1.44177
1.44408
1.46437
1.51627
1.57987
1.63328
1.65131
1.64331
1.64145
1.65371
1.68438
1.72596
1.77854
1.80683
1.82415
1.82469
1.82017
1.81104
1.799
1.78686
1.77556
1.76399
1.75077
1.73449
1.71823
1.71075
1.7065
1.70332
1.69487
1.55448
1.53757
1.49732
1.43669
1.38404
1.32337
1.24649
1.20432
1.17837
1.12866
1.09346
1.08722
1.07745
1.05075
1.04274
1.04603
1.04335
1.03992
1.04188
1.0491
1.10989
1.28421
1.50131
1.58118
1.58112
1.57653
1.56615
1.55129
1.53931
1.55589
1.65499
1.84331
1.98109
1.98503
1.97611
1.95237
1.92015
1.88963
1.86271
1.83822
1.82308
1.81219
1.79901
1.78303
1.76495
1.74439
1.72184
1.70376
1.68741
1.67055
1.65306
1.63565
1.62057
1.60751
1.5968
1.58635
1.57417
1.55997
1.5445
1.52792
1.51378
1.50379
1.49389
1.48341
1.47154
1.46077
1.45264
1.4611
1.50558
1.57329
1.63185
1.66881
1.67403
1.66947
1.65136
1.63114
1.6286
1.63154
1.64782
1.69352
1.74747
1.79403
1.80992
1.80687
1.80136
1.79571
1.78647
1.77592
1.76696
1.75754
1.74308
1.72301
1.71222
1.70787
1.70398
1.69482
1.56565
1.56055
1.54171
1.50157
1.44876
1.40169
1.34241
1.26954
1.23713
1.21092
1.16799
1.13134
1.11574
1.0896
1.05872
1.05238
1.04833
1.04274
1.05043
1.12965
1.3293
1.50449
1.58835
1.58635
1.57524
1.55559
1.53733
1.52339
1.51807
1.508
1.5119
1.56832
1.73277
1.8876
1.96076
1.95086
1.92605
1.89187
1.86497
1.84199
1.82362
1.80595
1.78662
1.76634
1.74756
1.73579
1.72707
1.71503
1.70025
1.68129
1.65979
1.63806
1.61531
1.59675
1.58459
1.57702
1.57234
1.56668
1.55592
1.53925
1.51955
1.50233
1.48909
1.48045
1.47087
1.46984
1.48923
1.54614
1.62349
1.67087
1.69325
1.69478
1.68926
1.67398
1.6511
1.63295
1.62688
1.62689
1.62792
1.63734
1.6708
1.71456
1.76462
1.79038
1.79217
1.78836
1.78304
1.77657
1.76978
1.76216
1.75167
1.7357
1.71712
1.70632
1.70269
1.69434
1.57684
1.57424
1.56759
1.54703
1.50795
1.45855
1.41273
1.3611
1.30391
1.26695
1.23175
1.19549
1.174
1.15132
1.10838
1.08392
1.08207
1.09603
1.18788
1.3887
1.54124
1.60321
1.59989
1.5844
1.56289
1.54085
1.52309
1.50951
1.49998
1.48698
1.4721
1.45896
1.48084
1.59511
1.78232
1.88584
1.90096
1.89494
1.8756
1.8525
1.82591
1.80122
1.77956
1.75996
1.74198
1.72785
1.71463
1.70298
1.69171
1.68065
1.66589
1.64012
1.60815
1.59081
1.58344
1.57747
1.56996
1.56014
1.54952
1.53622
1.51892
1.49949
1.4906
1.48397
1.49137
1.52832
1.59648
1.6689
1.71083
1.71947
1.7164
1.70962
1.69288
1.67019
1.64889
1.63711
1.63172
1.62878
1.6259
1.6257
1.6277
1.6406
1.66427
1.70805
1.74325
1.75774
1.76843
1.77632
1.7753
1.76988
1.75992
1.74426
1.7233
1.70683
1.70303
1.6954
1.58376
1.5831
1.58001
1.57152
1.54981
1.51518
1.4694
1.42063
1.37643
1.34044
1.29713
1.24385
1.22041
1.20578
1.17891
1.14131
1.15378
1.2753
1.48399
1.60778
1.64024
1.62772
1.60194
1.57851
1.55722
1.53657
1.51974
1.5055
1.4902
1.47258
1.45379
1.43394
1.41603
1.42055
1.48438
1.64414
1.78912
1.86852
1.87294
1.86095
1.82942
1.79742
1.77299
1.75172
1.73223
1.71777
1.70669
1.69693
1.68788
1.67834
1.66382
1.63906
1.60927
1.59019
1.58033
1.57228
1.56354
1.55654
1.54889
1.53803
1.52273
1.50477
1.50198
1.51972
1.58262
1.65488
1.70852
1.73473
1.73617
1.73054
1.72182
1.70951
1.68992
1.66388
1.64923
1.64447
1.63923
1.6337
1.62845
1.62378
1.61944
1.61275
1.60576
1.61445
1.64937
1.69904
1.73767
1.76304
1.77392
1.77247
1.76539
1.7521
1.73395
1.71112
1.70105
1.69213
1.58052
1.58205
1.58288
1.58151
1.57224
1.55061
1.5202
1.4797
1.42618
1.39445
1.36412
1.32529
1.26953
1.24538
1.23191
1.26022
1.40095
1.59842
1.69882
1.69364
1.67099
1.64218
1.61264
1.58696
1.56347
1.54246
1.52325
1.50568
1.48664
1.46789
1.44719
1.42296
1.40103
1.3905
1.38289
1.4066
1.51477
1.68985
1.80491
1.8233
1.81782
1.79722
1.77165
1.74581
1.72517
1.71077
1.7002
1.69042
1.68043
1.66972
1.65621
1.63632
1.60975
1.58766
1.57667
1.56791
1.5591
1.55021
1.53944
1.53295
1.52393
1.52816
1.56409
1.63523
1.70439
1.74105
1.75858
1.75995
1.75271
1.74117
1.72703
1.70896
1.68428
1.66153
1.65284
1.64795
1.64229
1.63592
1.62977
1.62312
1.61552
1.60552
1.59222
1.57891
1.58366
1.61423
1.66635
1.7149
1.74722
1.75968
1.75862
1.7541
1.74025
1.71597
1.69866
1.68737
1.57841
1.57978
1.58187
1.58114
1.57883
1.56967
1.54907
1.52013
1.48512
1.43924
1.40627
1.37719
1.33524
1.31701
1.37376
1.54382
1.71385
1.76741
1.75558
1.72357
1.68943
1.65908
1.63128
1.60347
1.57505
1.5482
1.52601
1.50797
1.48969
1.47006
1.44673
1.41949
1.39744
1.38211
1.36884
1.35452
1.35792
1.42027
1.56745
1.70237
1.76515
1.77285
1.76619
1.74222
1.71856
1.70148
1.69076
1.68188
1.67154
1.65878
1.64419
1.62688
1.60741
1.58705
1.57192
1.56008
1.55207
1.54559
1.5413
1.54276
1.56329
1.62458
1.70306
1.75091
1.75673
1.76178
1.76263
1.75706
1.74882
1.73883
1.72441
1.70354
1.67782
1.66021
1.65468
1.64976
1.64361
1.63688
1.62984
1.6213
1.61005
1.59576
1.58062
1.57112
1.56568
1.56742
1.58852
1.63587
1.68985
1.72647
1.74185
1.74219
1.73634
1.71846
1.69863
1.68383
1.58157
1.58139
1.58265
1.58254
1.58059
1.57626
1.56693
1.548
1.52192
1.48547
1.45216
1.40918
1.41906
1.52022
1.70204
1.83378
1.84473
1.82375
1.78591
1.74676
1.70998
1.67645
1.64574
1.61652
1.5884
1.56084
1.53546
1.51149
1.48835
1.46578
1.44375
1.41969
1.39952
1.38128
1.36544
1.34866
1.33378
1.32551
1.34675
1.44203
1.5869
1.68778
1.72664
1.72435
1.71006
1.69357
1.67954
1.66796
1.65628
1.6435
1.63114
1.61723
1.60048
1.58001
1.56217
1.55121
1.54866
1.54952
1.56484
1.61919
1.69285
1.7674
1.79203
1.79121
1.7813
1.76627
1.75687
1.74842
1.7402
1.73191
1.7192
1.69895
1.67478
1.66034
1.65364
1.64774
1.64145
1.63463
1.62696
1.61743
1.60431
1.58642
1.57048
1.5626
1.55913
1.5563
1.55642
1.56821
1.60215
1.65065
1.68894
1.70961
1.71494
1.70997
1.69622
1.6808
1.55925
1.56973
1.57861
1.58023
1.57896
1.57731
1.57361
1.56532
1.54505
1.51946
1.49207
1.52821
1.68496
1.85453
1.92165
1.91175
1.87626
1.83788
1.80169
1.76532
1.72776
1.69014
1.65469
1.62211
1.59307
1.56687
1.54331
1.52017
1.49647
1.47207
1.44644
1.41964
1.39719
1.37963
1.36384
1.34718
1.32925
1.31693
1.30306
1.30509
1.35172
1.47258
1.60144
1.67642
1.6936
1.68741
1.66785
1.65048
1.63652
1.62495
1.61569
1.60516
1.58993
1.57064
1.55421
1.55016
1.55528
1.58998
1.67542
1.7612
1.80731
1.80771
1.7993
1.78707
1.77443
1.76247
1.75135
1.74067
1.73021
1.72124
1.71023
1.69332
1.67376
1.65983
1.6509
1.64385
1.63735
1.63042
1.6226
1.61316
1.59938
1.57996
1.56471
1.55779
1.55353
1.54994
1.54713
1.54249
1.54524
1.56246
1.60125
1.64387
1.67636
1.68961
1.68771
1.67779
1.54185
1.57221
1.57173
1.56995
1.57103
1.57392
1.57332
1.56997
1.55762
1.56208
1.65859
1.84014
1.98022
2.00659
1.98601
1.93823
1.8908
1.85048
1.81329
1.77569
1.7375
1.70002
1.66532
1.63339
1.60362
1.57502
1.54705
1.51971
1.49531
1.47412
1.4525
1.42968
1.40632
1.38178
1.35924
1.34151
1.32773
1.31468
1.2993
1.28888
1.27901
1.29458
1.37542
1.5125
1.62337
1.64809
1.64575
1.6354
1.6217
1.61079
1.59981
1.58789
1.57526
1.5633
1.55833
1.57197
1.63217
1.72457
1.80029
1.83594
1.83605
1.82537
1.80239
1.77903
1.76485
1.75528
1.74501
1.73387
1.7219
1.71013
1.69857
1.68568
1.67137
1.65697
1.64577
1.63825
1.63231
1.6259
1.61817
1.60804
1.59321
1.57636
1.56501
1.55766
1.55082
1.54497
1.53942
1.53375
1.52665
1.52128
1.52867
1.55725
1.6008
1.64124
1.66619
1.67172
1.40191
1.52671
1.54013
1.55314
1.5655
1.57204
1.57359
1.57719
1.61259
1.77478
1.99156
2.05337
2.04033
2.01542
1.98092
1.94594
1.90723
1.86687
1.82638
1.78532
1.74447
1.70569
1.67116
1.64003
1.61025
1.58096
1.55306
1.52714
1.50209
1.47636
1.45048
1.42608
1.40612
1.38954
1.37019
1.34736
1.32496
1.30785
1.29733
1.28413
1.27107
1.25731
1.25999
1.30394
1.42161
1.53626
1.59631
1.61575
1.61229
1.59937
1.58289
1.57381
1.56951
1.57937
1.61289
1.69481
1.77886
1.83101
1.82942
1.82647
1.82179
1.81331
1.79726
1.77819
1.76472
1.75349
1.74156
1.72849
1.71416
1.70005
1.68852
1.67911
1.66773
1.65369
1.64149
1.63247
1.62616
1.62106
1.61465
1.60428
1.5889
1.57358
1.56377
1.5572
1.55096
1.54377
1.53656
1.52918
1.52
1.50956
1.5
1.50329
1.52394
1.56596
1.6127
1.64909
1.12638
1.34834
1.47639
1.54509
1.55974
1.56472
1.59694
1.68838
1.87081
2.05517
2.13083
2.1179
2.06765
2.01485
1.9788
1.94894
1.91408
1.87372
1.83249
1.79215
1.75256
1.71513
1.68062
1.64823
1.61743
1.58719
1.55575
1.52523
1.50046
1.48127
1.46187
1.44059
1.41588
1.38799
1.36456
1.34704
1.33215
1.31429
1.29528
1.28535
1.27743
1.26158
1.24504
1.23142
1.24756
1.32605
1.45226
1.54408
1.5797
1.57721
1.57138
1.5789
1.62322
1.68894
1.76039
1.83358
1.86575
1.86073
1.84312
1.81965
1.80264
1.79275
1.78285
1.77237
1.7623
1.75148
1.73976
1.72601
1.71033
1.69562
1.68328
1.67199
1.66002
1.64896
1.63999
1.63164
1.62352
1.61543
1.60616
1.59568
1.58488
1.57462
1.56601
1.5571
1.54979
1.54611
1.54143
1.53298
1.52037
1.50477
1.49461
1.4872
1.48722
1.50214
1.53671
1.60101
1.00792
1.09651
1.27295
1.47138
1.50894
1.61076
1.82766
1.9754
2.08344
2.12046
2.12102
2.10663
2.07649
2.03092
1.98819
1.95097
1.91311
1.87209
1.83049
1.79291
1.75843
1.72394
1.6906
1.65893
1.62812
1.59567
1.56193
1.53249
1.50639
1.4823
1.45936
1.43726
1.41732
1.39547
1.37318
1.35166
1.33305
1.31624
1.30105
1.28701
1.26931
1.25009
1.22993
1.21874
1.21146
1.21429
1.25937
1.37399
1.4972
1.54481
1.58201
1.67271
1.78036
1.8316
1.85725
1.86724
1.86537
1.85381
1.83652
1.82012
1.80155
1.78529
1.77481
1.76719
1.76025
1.75154
1.73916
1.72375
1.70762
1.6927
1.67964
1.66876
1.65778
1.64726
1.64077
1.63565
1.62789
1.61595
1.60158
1.58846
1.58032
1.5751
1.56921
1.56205
1.55439
1.54505
1.53489
1.52449
1.51445
1.50519
1.49486
1.48372
1.47768
1.47708
1.48339
1.53368
1.00012
1.00634
1.051
1.26846
1.52942
1.78562
2.01871
2.12126
2.1694
2.15409
2.12137
2.09596
2.07542
2.04431
2.00031
1.95234
1.91186
1.8779
1.84177
1.80276
1.76537
1.72748
1.69232
1.65904
1.62407
1.59612
1.57742
1.55448
1.5259
1.49597
1.47041
1.44754
1.42495
1.39647
1.37009
1.36005
1.34956
1.3364
1.31839
1.29475
1.27012
1.25078
1.23443
1.21847
1.20592
1.19734
1.19987
1.23439
1.34538
1.52629
1.66377
1.79778
1.88188
1.91183
1.90837
1.89553
1.86713
1.84379
1.82957
1.81916
1.8042
1.78556
1.77362
1.76606
1.759
1.74934
1.73892
1.7264
1.71173
1.69591
1.67816
1.66389
1.65552
1.64958
1.64337
1.63385
1.62256
1.61051
1.59811
1.5885
1.58159
1.57521
1.56906
1.56343
1.55616
1.54464
1.53181
1.52186
1.51318
1.50275
1.49147
1.4823
1.4759
1.46957
1.47003
1.49055
1.00013
1.00286
1.05931
1.23295
1.56609
1.84585
1.97385
2.10793
2.17862
2.1456
2.11686
2.10019
2.08346
2.05855
2.01602
1.96518
1.91737
1.87362
1.83257
1.79117
1.7566
1.73271
1.70617
1.67346
1.63859
1.60343
1.5688
1.53911
1.51148
1.48177
1.46166
1.45361
1.43893
1.41199
1.37969
1.35199
1.33259
1.31839
1.30277
1.28208
1.26899
1.26164
1.24949
1.23116
1.21122
1.19916
1.20139
1.22923
1.33232
1.5047
1.68826
1.80069
1.85529
1.90812
1.90846
1.88572
1.85887
1.84252
1.83102
1.82219
1.80875
1.79129
1.77769
1.76735
1.75757
1.74519
1.73097
1.71791
1.7058
1.69329
1.67963
1.66768
1.65831
1.6506
1.64353
1.63349
1.62012
1.61002
1.60205
1.59487
1.58822
1.58219
1.57678
1.57094
1.56222
1.54772
1.53061
1.51959
1.51225
1.50316
1.49412
1.48572
1.4773
1.47073
1.47089
1.48587
1.00924
1.07223
1.28105
1.4387
1.53704
1.66889
1.77795
1.9566
2.07914
2.11393
2.11531
2.10637
2.07883
2.04004
2.00319
1.96463
1.92046
1.87321
1.8289
1.7906
1.75452
1.71786
1.68337
1.65137
1.62101
1.59257
1.56332
1.53374
1.50644
1.48485
1.46567
1.44216
1.419
1.39815
1.37561
1.35216
1.33116
1.31207
1.29609
1.28287
1.2664
1.24783
1.23322
1.22346
1.21276
1.21795
1.26875
1.38545
1.49782
1.53487
1.60533
1.67636
1.74249
1.82094
1.84879
1.86055
1.86162
1.85696
1.84135
1.824
1.80979
1.7981
1.78611
1.77328
1.75929
1.74358
1.72915
1.71628
1.70569
1.69801
1.68944
1.67891
1.66849
1.65806
1.64648
1.6341
1.62015
1.60632
1.5961
1.58967
1.5842
1.57885
1.57329
1.56691
1.55815
1.54435
1.52671
1.51348
1.50819
1.50529
1.50068
1.49324
1.48376
1.47843
1.48308
1.52563
1.12628
1.32029
1.49337
1.54263
1.5566
1.56479
1.58659
1.68277
1.88349
2.06282
2.12845
2.1191
2.07329
2.0243
1.99057
1.95687
1.91449
1.86686
1.82119
1.78121
1.74508
1.7108
1.67927
1.65034
1.62191
1.5917
1.56029
1.53024
1.50307
1.47911
1.45711
1.43219
1.40794
1.394
1.3822
1.36513
1.34361
1.31899
1.29646
1.27841
1.26069
1.24503
1.23095
1.22992
1.24889
1.33792
1.45985
1.55689
1.58231
1.57429
1.57245
1.57754
1.60368
1.67558
1.7666
1.835
1.86769
1.86634
1.84741
1.82188
1.80596
1.79762
1.78864
1.77656
1.76118
1.74494
1.73108
1.7184
1.70622
1.69594
1.68571
1.67591
1.66749
1.65833
1.64655
1.63417
1.62223
1.61024
1.5997
1.59188
1.58647
1.58216
1.57752
1.56981
1.55798
1.54302
1.52697
1.51512
1.50715
1.50106
1.49602
1.49325
1.49543
1.50814
1.53906
1.59311
1.37454
1.50977
1.55565
1.56631
1.57209
1.57459
1.57387
1.57569
1.61666
1.78341
1.98413
2.052
2.04622
2.02333
1.98803
1.94573
1.9002
1.8553
1.81399
1.77659
1.74196
1.70964
1.67859
1.64769
1.61687
1.58651
1.55659
1.52777
1.49967
1.47122
1.44498
1.42475
1.40669
1.38582
1.36601
1.35144
1.33591
1.31591
1.2934
1.27434
1.26165
1.24804
1.25027
1.29765
1.41613
1.54441
1.60315
1.61791
1.61179
1.59411
1.57499
1.56821
1.5688
1.57956
1.62639
1.70507
1.79464
1.83081
1.82598
1.8237
1.81872
1.80898
1.79496
1.77873
1.76389
1.75091
1.73773
1.72435
1.71303
1.7025
1.69148
1.6811
1.6714
1.65974
1.64614
1.63506
1.62744
1.61992
1.61091
1.60246
1.59474
1.586
1.57661
1.56602
1.55433
1.54348
1.53461
1.52448
1.51174
1.50455
1.50255
1.50896
1.53561
1.58008
1.62698
1.64956
1.52583
1.56531
1.57753
1.57731
1.57525
1.57518
1.57265
1.56878
1.55709
1.56156
1.65038
1.83677
1.98202
2.00605
1.98452
1.9338
1.88475
1.84323
1.80712
1.77358
1.74051
1.70724
1.67406
1.6417
1.61104
1.5813
1.55165
1.52238
1.49367
1.46582
1.44192
1.42108
1.39997
1.37948
1.36091
1.34712
1.33628
1.32331
1.3008
1.28314
1.27107
1.28634
1.37467
1.50983
1.61724
1.65467
1.6527
1.63835
1.61774
1.6031
1.59001
1.58107
1.57409
1.57212
1.57044
1.58512
1.63915
1.72204
1.7905
1.82922
1.82871
1.81917
1.80117
1.78501
1.77343
1.76274
1.74946
1.73368
1.71803
1.70538
1.69424
1.68345
1.67237
1.66092
1.65057
1.6407
1.62919
1.61849
1.61096
1.60492
1.59754
1.58728
1.57557
1.5645
1.55418
1.54428
1.53497
1.52471
1.51589
1.51441
1.52694
1.5644
1.61823
1.66206
1.67758
1.67701
1.55476
1.56581
1.57721
1.58164
1.58046
1.57806
1.57224
1.56291
1.54337
1.51995
1.49133
1.52548
1.68239
1.85191
1.91303
1.90379
1.87183
1.83515
1.79972
1.76609
1.73247
1.6979
1.66352
1.63038
1.59991
1.57128
1.54317
1.51541
1.4888
1.46114
1.43417
1.41192
1.39509
1.38154
1.36931
1.3561
1.33811
1.32069
1.30213
1.30266
1.34651
1.4674
1.60445
1.67491
1.692
1.68761
1.67268
1.65229
1.6315
1.61887
1.61184
1.60268
1.59245
1.58155
1.57194
1.56054
1.56212
1.58551
1.65914
1.73797
1.79538
1.80145
1.80088
1.79717
1.78737
1.7747
1.75855
1.74117
1.72464
1.71093
1.69818
1.68609
1.67532
1.66629
1.65784
1.64769
1.63597
1.6267
1.61981
1.61033
1.59781
1.58563
1.57481
1.56536
1.55699
1.54999
1.54412
1.53295
1.5315
1.54828
1.59177
1.64273
1.68812
1.70334
1.70422
1.69695
1.58129
1.58076
1.58324
1.58367
1.58196
1.57695
1.56594
1.54642
1.5213
1.48575
1.45218
1.40893
1.41826
1.51655
1.6916
1.82973
1.84829
1.82595
1.78776
1.74966
1.7144
1.68183
1.65014
1.61805
1.58726
1.55815
1.52974
1.50223
1.47862
1.45646
1.43569
1.41833
1.40392
1.38682
1.37093
1.35453
1.34387
1.32925
1.34353
1.43665
1.57755
1.68534
1.72314
1.72933
1.71967
1.7043
1.68632
1.66603
1.64747
1.63364
1.62247
1.6107
1.5996
1.58847
1.57816
1.56602
1.55898
1.54725
1.55269
1.59603
1.67886
1.7538
1.79803
1.80119
1.79562
1.78018
1.76326
1.74782
1.73136
1.71501
1.70014
1.68835
1.67972
1.67238
1.66512
1.65732
1.64888
1.63803
1.62271
1.60633
1.59367
1.58489
1.57703
1.57028
1.56478
1.5612
1.55712
1.5599
1.58135
1.62396
1.66611
1.70071
1.71911
1.71962
1.7154
1.70118
1.57822
1.57869
1.58166
1.58236
1.57969
1.56913
1.54832
1.51978
1.4848
1.439
1.40657
1.3769
1.33505
1.31685
1.37063
1.54411
1.72404
1.77092
1.75847
1.72667
1.69275
1.66303
1.63326
1.60191
1.5715
1.54439
1.5198
1.4985
1.48058
1.46223
1.44217
1.42499
1.40872
1.39114
1.37677
1.36106
1.36393
1.41179
1.54633
1.6863
1.74892
1.7755
1.77007
1.75342
1.73595
1.71784
1.69851
1.67814
1.66067
1.64648
1.63319
1.61937
1.60663
1.59507
1.58416
1.5741
1.56263
1.55001
1.53049
1.52493
1.54757
1.61873
1.71045
1.76558
1.77788
1.77673
1.7702
1.75713
1.73613
1.7155
1.70085
1.69032
1.6833
1.67731
1.67128
1.66508
1.65796
1.64386
1.61925
1.59954
1.59098
1.58541
1.58047
1.57728
1.57565
1.58299
1.60119
1.63398
1.67454
1.70013
1.71531
1.72544
1.7248
1.71975
1.71347
1.70115
1.58036
1.58168
1.58313
1.58214
1.57259
1.55071
1.52009
1.47911
1.42583
1.39468
1.36388
1.32443
1.26873
1.24637
1.23276
1.26236
1.41183
1.60347
1.69765
1.69377
1.67159
1.64292
1.61393
1.5858
1.5605
1.53861
1.51675
1.49763
1.48022
1.46373
1.44527
1.4329
1.41812
1.40641
1.39283
1.41157
1.51974
1.67415
1.78309
1.80476
1.80409
1.79536
1.77923
1.76082
1.74273
1.72358
1.70423
1.68678
1.67244
1.65891
1.64396
1.6277
1.61263
1.60137
1.59216
1.58101
1.56704
1.55065
1.53217
1.51409
1.50703
1.51723
1.56647
1.65074
1.72579
1.76389
1.76615
1.76025
1.73731
1.71274
1.69945
1.69114
1.68518
1.68021
1.67505
1.66938
1.66038
1.6428
1.61471
1.59573
1.59005
1.58539
1.58493
1.58733
1.60661
1.64891
1.69571
1.73003
1.74471
1.74363
1.73494
1.72658
1.72219
1.71636
1.71064
1.6999
1.58382
1.58312
1.58029
1.57159
1.54958
1.51488
1.46917
1.4207
1.37655
1.34048
1.29636
1.24346
1.22106
1.20632
1.17887
1.14166
1.15624
1.27854
1.4807
1.60471
1.63896
1.62592
1.60164
1.57615
1.55381
1.53613
1.51877
1.50228
1.48638
1.47164
1.45697
1.44784
1.43252
1.43516
1.49199
1.64664
1.78917
1.85395
1.8582
1.84436
1.82382
1.8035
1.78559
1.76788
1.7484
1.72628
1.70661
1.69185
1.67934
1.66685
1.65214
1.63525
1.61862
1.60429
1.59527
1.58808
1.57635
1.55837
1.53645
1.51564
1.50078
1.49679
1.49848
1.52625
1.59401
1.67748
1.72461
1.73607
1.72774
1.71029
1.70143
1.69428
1.68802
1.6818
1.67492
1.66694
1.65541
1.6376
1.61222
1.59659
1.5932
1.59205
1.59685
1.62444
1.68283
1.73792
1.76932
1.78099
1.77884
1.76649
1.74278
1.72597
1.71793
1.71229
1.70897
1.70028
1.57695
1.57439
1.56768
1.54707
1.50784
1.45869
1.41288
1.36077
1.30364
1.26713
1.23192
1.19567
1.17403
1.15052
1.10708
1.08506
1.08329
1.09689
1.18466
1.38052
1.54263
1.60088
1.59534
1.57657
1.55616
1.54063
1.52658
1.51363
1.50208
1.48832
1.47615
1.46535
1.48736
1.60156
1.77781
1.8896
1.89164
1.88378
1.86517
1.84829
1.83221
1.81478
1.79674
1.77515
1.74989
1.72536
1.70722
1.69442
1.68278
1.67108
1.65739
1.64071
1.62322
1.60785
1.59519
1.58301
1.56882
1.55258
1.53288
1.51391
1.50139
1.49193
1.48624
1.48642
1.49891
1.54632
1.61244
1.67385
1.7009
1.70278
1.70373
1.6993
1.69129
1.68121
1.67163
1.66191
1.64894
1.63154
1.61084
1.60106
1.60228
1.61273
1.64968
1.7079
1.76285
1.7878
1.78783
1.7869
1.77899
1.76267
1.74181
1.72624
1.71597
1.70968
1.70685
1.70126
1.56571
1.5606
1.54171
1.50144
1.44882
1.40186
1.34196
1.26908
1.23757
1.21144
1.16785
1.13117
1.11528
1.08858
1.05829
1.05296
1.04892
1.04294
1.04978
1.12881
1.31993
1.5265
1.57817
1.57356
1.56841
1.56042
1.54644
1.5333
1.52435
1.51166
1.51455
1.5652
1.72622
1.87496
1.94937
1.94579
1.92003
1.8869
1.86244
1.84565
1.83397
1.82175
1.80181
1.77454
1.74776
1.7269
1.71119
1.69724
1.68352
1.66968
1.65588
1.64122
1.62499
1.60902
1.59411
1.57918
1.56428
1.55072
1.53703
1.5216
1.50609
1.49368
1.48607
1.48012
1.4755
1.47827
1.49666
1.54624
1.61911
1.66566
1.68512
1.68694
1.6812
1.67192
1.66211
1.65096
1.63923
1.62678
1.61773
1.6231
1.64576
1.69119
1.74651
1.78169
1.79961
1.80175
1.79651
1.78299
1.76826
1.75326
1.74124
1.73093
1.71996
1.71127
1.70701
1.6992
1.55445
1.53755
1.49727
1.43672
1.38428
1.32327
1.24601
1.20428
1.17865
1.12894
1.09339
1.0871
1.07722
1.05048
1.04265
1.04611
1.04365
1.04006
1.04197
1.04973
1.10423
1.29866
1.50375
1.56238
1.58038
1.58396
1.57326
1.55847
1.54838
1.56578
1.66395
1.83468
1.96862
1.97218
1.96578
1.94339
1.91968
1.89655
1.87679
1.85693
1.83618
1.81516
1.793
1.77
1.74781
1.7282
1.712
1.69981
1.68914
1.67817
1.66565
1.65175
1.63422
1.61242
1.59247
1.57568
1.56112
1.54927
1.53924
1.52858
1.51686
1.50654
1.49739
1.48752
1.47435
1.45956
1.45235
1.45996
1.50139
1.57045
1.62855
1.66835
1.67141
1.6669
1.65539
1.64078
1.6333
1.6363
1.65344
1.69237
1.74085
1.79023
1.80963
1.80559
1.80096
1.79298
1.78338
1.77411
1.76446
1.75393
1.74531
1.73723
1.7242
1.7125
1.70806
1.69918
1.53394
1.49382
1.42511
1.35773
1.29435
1.21824
1.16188
1.12913
1.0934
1.05423
1.04755
1.0459
1.04049
1.03803
1.03922
1.04569
1.05308
1.05438
1.05679
1.06427
1.07298
1.11345
1.29619
1.48419
1.57316
1.5877
1.58884
1.59254
1.63266
1.76913
1.93603
2.00925
2.02383
2.00505
1.96632
1.93546
1.91647
1.89779
1.87657
1.85334
1.83059
1.80855
1.78652
1.76561
1.74791
1.73266
1.71944
1.70697
1.69201
1.67451
1.65692
1.64111
1.62546
1.60785
1.59042
1.57496
1.56221
1.55324
1.5452
1.5363
1.52498
1.50786
1.48947
1.4784
1.46759
1.45401
1.44443
1.44333
1.44834
1.47493
1.52381
1.59164
1.63525
1.64213
1.63833
1.63776
1.64851
1.68134
1.73678
1.79003
1.82096
1.83538
1.83396
1.82073
1.7979
1.77958
1.76867
1.76232
1.75537
1.74768
1.74194
1.73624
1.72764
1.71403
1.70049
1.68797
1.49371
1.40662
1.32095
1.25648
1.17371
1.10631
1.10228
1.08918
1.06438
1.05691
1.05476
1.05428
1.05562
1.06037
1.06777
1.07533
1.07996
1.08169
1.08368
1.08791
1.08837
1.09245
1.12405
1.28106
1.47726
1.55528
1.62993
1.72433
1.86568
1.97748
2.04051
2.03334
2.00853
1.98291
1.9618
1.94185
1.92257
1.90269
1.88124
1.8564
1.82964
1.80573
1.78783
1.77357
1.76048
1.74843
1.73604
1.72115
1.70236
1.68109
1.65945
1.63923
1.62252
1.60895
1.59616
1.5849
1.577
1.57001
1.56184
1.55197
1.53877
1.51889
1.49354
1.47446
1.46531
1.4574
1.44999
1.44576
1.44078
1.4416
1.45554
1.48851
1.54888
1.59403
1.62339
1.66639
1.71696
1.76063
1.81155
1.8345
1.84328
1.84121
1.83024
1.81368
1.79291
1.77361
1.7648
1.75882
1.75435
1.75177
1.74814
1.74251
1.734
1.71982
1.70158
1.68066
1.39411
1.22964
1.10979
1.0256
0.964482
0.965426
1.004
1.03604
1.03826
1.05002
1.06896
1.08283
1.09165
1.10481
1.1139
1.11421
1.11278
1.11037
1.11102
1.11072
1.10847
1.10849
1.11151
1.13565
1.26057
1.5194
1.7615
1.97369
2.13319
2.18584
2.14084
2.05894
1.99838
1.97095
1.95271
1.93669
1.91771
1.89726
1.87631
1.85233
1.8247
1.79835
1.77883
1.7647
1.75219
1.74022
1.72803
1.71372
1.69582