/*--------------------------------*- C++ -*----------------------------------*\
  =========                 |
  \\      /  F ield         | OpenFOAM: The Open Source CFD Toolbox
   \\    /   O peration     | Website:  https://openfoam.org
    \\  /    A nd           | Version:  7
     \\/     M anipulation  |
\*---------------------------------------------------------------------------*/
FoamFile
{
    version     2.0;
    format      ascii;
    class       volVectorField;
    location    "3.1";
    object      U;
}
// * * * * * * * * * * * * * * * * * * * * * * * * * * * * * * * * * * * * * //

dimensions      [0 1 -1 0 0 0 0];

internalField   nonuniform List<vector> 
4608
(
(3 -1.83441e-17 0)
(3 -5.39453e-19 0)
(3 3.407e-16 0)
(3 3.26827e-16 0)
(3 -1.68464e-16 0)
(3 2.3411e-16 0)
(3 4.2023e-16 0)
(3 1.34286e-15 0)
(3 2.00788e-15 0)
(3 1.78611e-15 0)
(3 1.6727e-15 0)
(3 6.94474e-16 0)
(3 -1.61325e-16 0)
(3 -8.95242e-16 0)
(3 8.55222e-16 0)
(3 1.14716e-15 0)
(3 5.14506e-16 0)
(3 2.33311e-16 0)
(3 -1.58841e-17 0)
(3 2.70861e-16 0)
(3 6.95819e-16 0)
(3 1.37461e-15 0)
(3 1.10074e-15 0)
(3 7.69118e-16 0)
(3 -1.16322e-17 0)
(3 -1.17756e-17 0)
(3 8.4789e-17 0)
(3 2.08607e-16 0)
(3 -6.3042e-16 0)
(3 -4.09919e-16 0)
(3 -1.74765e-16 0)
(3 1.033e-15 0)
(3 2.56193e-15 0)
(3 2.9626e-15 0)
(3 3.7763e-15 0)
(3 2.95318e-15 0)
(3 3.82395e-16 0)
(3 -7.53609e-16 0)
(3 1.44181e-16 0)
(3 5.17517e-16 0)
(3 6.71218e-16 0)
(3 8.50987e-16 0)
(3 7.25597e-16 0)
(3 6.82215e-16 0)
(3 1.00454e-15 0)
(3 2.0154e-15 0)
(3 1.91138e-15 0)
(3 9.85889e-16 0)
(3 -1.11659e-16 0)
(3 1.00347e-16 0)
(3 3.34781e-17 0)
(3 -1.51715e-16 0)
(3 -2.35195e-16 0)
(3 -6.07403e-16 0)
(3 -2.68277e-16 0)
(3 -5.809e-16 0)
(3 1.38378e-15 0)
(3 3.0468e-15 0)
(3 3.10362e-15 0)
(3 2.65503e-15 0)
(3 2.18762e-15 0)
(3 2.63761e-16 0)
(3 -5.70469e-17 0)
(3 6.78513e-16 0)
(3 1.50529e-15 0)
(3 2.10432e-15 0)
(3 1.39308e-15 0)
(3 2.9261e-16 0)
(3 6.43944e-16 0)
(3 1.16229e-15 0)
(3 1.76506e-15 0)
(3 1.73557e-15 0)
(3 -3.73213e-17 0)
(3 1.34687e-17 0)
(3 1.86727e-16 0)
(3 3.68323e-17 0)
(3 4.93191e-16 0)
(3 2.73871e-16 0)
(3 -3.87457e-16 0)
(3 -2.07654e-16 0)
(3 8.14052e-16 0)
(3 1.82311e-15 0)
(3 1.93385e-15 0)
(3 1.91232e-15 0)
(3 1.90878e-15 0)
(3 1.77849e-15 0)
(3 2.21197e-15 0)
(3 1.43096e-15 0)
(3 1.03654e-15 0)
(3 4.54598e-16 0)
(3 -7.49122e-16 0)
(3 -1.35175e-15 0)
(3 -1.36102e-15 0)
(3 -1.18525e-15 0)
(3 -7.04492e-16 0)
(3 -1.75016e-16 0)
(3 3.16762e-16 0)
(3 1.73016e-16 0)
(3 -1.267e-16 0)
(3 -3.63996e-16 0)
(3 4.02468e-16 0)
(3 1.1928e-15 0)
(3 7.38481e-16 0)
(3 1.46572e-16 0)
(3 3.12003e-16 0)
(3 2.23793e-16 0)
(3 1.92015e-17 0)
(3 6.92696e-16 0)
(3 8.68241e-16 0)
(3 1.50902e-15 0)
(3 1.79365e-15 0)
(3 1.32261e-15 0)
(3 9.36708e-16 0)
(3 1.08566e-15 0)
(3 8.54609e-16 0)
(3 8.09906e-16 0)
(3 2.59392e-16 0)
(3 -2.61973e-16 0)
(3 -9.78892e-16 0)
(3 -1.07637e-15 0)
(3 -4.05546e-18 0)
(3 5.70883e-17 0)
(3 -2.15485e-16 0)
(3 -1.2891e-16 0)
(3 7.01459e-17 0)
(3 3.06334e-16 0)
(3 4.34534e-16 0)
(3 1.93398e-16 0)
(3 5.46107e-16 0)
(3 4.17565e-16 0)
(3 2.53898e-16 0)
(3 2.08738e-16 0)
(3 2.94229e-16 0)
(3 1.42126e-15 0)
(3 1.65795e-15 0)
(3 1.46472e-15 0)
(3 1.58544e-15 0)
(3 1.86074e-15 0)
(3 2.15881e-15 0)
(3 1.3039e-15 0)
(3 2.55714e-16 0)
(3 -4.59743e-17 0)
(3 -1.16857e-15 0)
(3 -6.88074e-16 0)
(3 2.1926e-18 0)
(3 -1.6126e-16 0)
(3 -3.19411e-16 0)
(3 -1.04095e-16 0)
(3 -9.79677e-17 0)
(3 -4.32363e-17 0)
(3 2.10007e-16 0)
(3 5.63339e-16 0)
(3 9.40861e-16 0)
(3 8.88904e-16 0)
(3 5.27054e-16 0)
(3 2.57461e-16 0)
(3 8.59612e-16 0)
(3 9.72572e-16 0)
(3 8.3944e-16 0)
(3 7.70628e-16 0)
(3 5.93979e-16 0)
(3 4.92562e-16 0)
(3 3.88637e-16 0)
(3 -7.33405e-16 0)
(3 -8.13917e-16 0)
(3 -5.25544e-16 0)
(3 -2.29416e-16 0)
(3 -2.7698e-16 0)
(3 4.28891e-17 0)
(3 -1.57382e-16 0)
(3 -1.74022e-16 0)
(3 -2.47366e-16 0)
(3 -2.10464e-16 0)
(3 3.64758e-16 0)
(3 8.50814e-16 0)
(3 9.90611e-16 0)
(3 1.83726e-16 0)
(3 -7.38724e-17 0)
(3 -1.7202e-16 0)
(3 -7.02143e-16 0)
(3 -5.82598e-16 0)
(3 -6.9591e-16 0)
(3 -4.70284e-16 0)
(3 4.10824e-16 0)
(3 4.47496e-16 0)
(3 9.86878e-17 0)
(3 -4.15632e-16 0)
(3 -3.51043e-16 0)
(3 -1.7533e-17 0)
(3 2.84175e-17 0)
(3 3.96593e-16 0)
(3 2.02686e-16 0)
(3 -2.80451e-16 0)
(3 -3.35057e-16 0)
(3 3.05632e-17 0)
(3 9.00283e-17 0)
(3 -6.89605e-17 0)
(3 1.97183e-17 0)
(3 2.1521e-16 0)
(3 2.84332e-16 0)
(3 2.65476e-16 0)
(3 2.48452e-16 0)
(3 4.02218e-17 0)
(3 -5.20878e-16 0)
(3 -8.20462e-16 0)
(3 -5.47173e-16 0)
(3 6.41805e-18 0)
(3 6.09752e-16 0)
(3 3.27283e-16 0)
(3 -3.32642e-16 0)
(3 -8.01097e-16 0)
(3 -1.29451e-15 0)
(3 -1.606e-15 0)
(3 -2.04414e-15 0)
(3 -2.01402e-15 0)
(3 -1.32107e-15 0)
(3 -1.90591e-16 0)
(3 -2.6511e-16 0)
(3 -3.23184e-17 0)
(3 2.47738e-17 0)
(3 -2.82124e-16 0)
(3 -7.92054e-16 0)
(3 -7.32969e-16 0)
(3 -1.40127e-16 0)
(3 4.09591e-16 0)
(3 4.61223e-16 0)
(3 -8.28928e-17 0)
(3 -5.10031e-16 0)
(3 -7.7679e-16 0)
(3 -8.03047e-16 0)
(3 -9.62843e-16 0)
(3 -9.44592e-16 0)
(3 -7.63068e-16 0)
(3 -7.80022e-16 0)
(3 -1.67363e-15 0)
(3 -1.49617e-15 0)
(3 -1.57005e-15 0)
(3 -2.76591e-15 0)
(3 -2.99312e-15 0)
(3 -2.85715e-15 0)
(3 -1.47493e-17 0)
(3 1.15926e-16 0)
(3 4.45045e-16 0)
(3 7.70699e-16 0)
(3 2.57797e-16 0)
(3 -3.18826e-16 0)
(3 -6.34051e-16 0)
(3 -2.95234e-16 0)
(3 -2.84374e-16 0)
(3 -7.18584e-16 0)
(3 -8.50805e-16 0)
(3 -5.22124e-16 0)
(3 -6.58027e-16 0)
(3 -1.24665e-15 0)
(3 -2.23758e-15 0)
(3 -2.64723e-15 0)
(3 -2.67801e-15 0)
(3 -3.17327e-15 0)
(3 -1.03345e-15 0)
(3 -8.9301e-16 0)
(3 -1.02656e-15 0)
(3 -1.24919e-15 0)
(3 -1.80086e-15 0)
(3 -2.11696e-15 0)
(3 1.30034e-16 0)
(3 8.5884e-16 0)
(3 7.86175e-16 0)
(3 4.93849e-16 0)
(3 8.00873e-16 0)
(3 6.46416e-16 0)
(3 6.75415e-16 0)
(3 2.21579e-16 0)
(3 -3.49887e-16 0)
(3 -3.5687e-16 0)
(3 1.90458e-16 0)
(3 4.23824e-16 0)
(3 4.39826e-17 0)
(3 7.58652e-17 0)
(3 -5.20887e-16 0)
(3 -3.15433e-16 0)
(3 -7.26753e-16 0)
(3 -1.83988e-15 0)
(3 -1.54464e-15 0)
(3 -1.32659e-15 0)
(3 -1.34889e-15 0)
(3 -1.21428e-15 0)
(3 -1.26266e-15 0)
(3 -1.50675e-15 0)
(3 -1.33183e-17 0)
(3 2.06151e-16 0)
(3 2.92431e-16 0)
(3 -1.43416e-16 0)
(3 2.59977e-16 0)
(3 2.7046e-16 0)
(3 5.38732e-16 0)
(3 5.58145e-16 0)
(3 4.57086e-16 0)
(3 2.64396e-16 0)
(3 1.04463e-16 0)
(3 1.39988e-16 0)
(3 -1.03014e-16 0)
(3 -2.00323e-17 0)
(3 7.2445e-16 0)
(3 5.9711e-16 0)
(3 4.06653e-16 0)
(3 1.54538e-16 0)
(3 -6.41971e-16 0)
(3 -8.58092e-16 0)
(3 -1.25459e-15 0)
(3 -1.15763e-15 0)
(3 -1.46379e-15 0)
(3 -1.54812e-15 0)
(3 1.22685e-16 0)
(3 2.15119e-16 0)
(3 -4.72721e-18 0)
(3 -1.68633e-17 0)
(3 -8.20973e-18 0)
(3 7.07742e-17 0)
(3 8.13575e-17 0)
(3 2.94926e-16 0)
(3 3.34514e-16 0)
(3 1.02604e-16 0)
(3 -6.89898e-16 0)
(3 -5.17574e-16 0)
(3 -2.93459e-16 0)
(3 3.21215e-16 0)
(3 -5.65353e-18 0)
(3 -8.50553e-16 0)
(3 -9.77389e-16 0)
(3 -8.83495e-16 0)
(3 -7.76617e-16 0)
(3 -9.02655e-16 0)
(3 -1.43862e-15 0)
(3 -1.39069e-15 0)
(3 -1.01676e-15 0)
(3 -5.58823e-16 0)
(3 4.00166e-17 0)
(3 -1.0518e-16 0)
(3 -4.66832e-16 0)
(3 -6.75122e-16 0)
(3 -8.31014e-16 0)
(3 -4.39638e-16 0)
(3 -6.49025e-16 0)
(3 -9.9344e-16 0)
(3 -8.08966e-16 0)
(3 -7.0821e-16 0)
(3 -3.36251e-16 0)
(3 1.15192e-16 0)
(3 2.18362e-16 0)
(3 3.51782e-16 0)
(3 7.18234e-17 0)
(3 -4.70769e-16 0)
(3 -8.95677e-16 0)
(3 -1.40698e-15 0)
(3 -1.6126e-15 0)
(3 -7.93308e-16 0)
(3 -5.77008e-16 0)
(3 -5.28146e-16 0)
(3 -3.01018e-16 0)
(3 -5.12509e-16 0)
(3 -1.26302e-16 0)
(3 -3.72255e-16 0)
(3 -5.19786e-16 0)
(3 -5.07525e-16 0)
(3 -1.10209e-15 0)
(3 -1.5984e-15 0)
(3 -1.99319e-15 0)
(3 -2.13334e-15 0)
(3 -1.93367e-15 0)
(3 -1.25138e-15 0)
(3 -7.46847e-16 0)
(3 -5.48287e-16 0)
(3 -1.25245e-16 0)
(3 -3.89639e-17 0)
(3 -6.5455e-17 0)
(3 1.55913e-16 0)
(3 1.88355e-16 0)
(3 3.55435e-16 0)
(3 1.52612e-16 0)
(3 -3.04453e-16 0)
(3 -5.957e-17 0)
(3 -2.04595e-16 0)
(3 -4.86007e-16 0)
(3 -4.34772e-16 0)
(3 2.61483e-17 0)
(3 -1.38878e-16 0)
(3 -1.30901e-16 0)
(3 -3.28822e-17 0)
(3 -6.42743e-16 0)
(3 -1.41725e-15 0)
(3 -1.12084e-15 0)
(3 -9.13909e-16 0)
(3 -1.37021e-15 0)
(3 -1.09963e-15 0)
(3 -6.35685e-16 0)
(3 -1.53113e-16 0)
(3 2.81518e-16 0)
(3 2.23186e-16 0)
(3 3.48237e-16 0)
(3 5.99255e-16 0)
(3 9.39408e-16 0)
(3 1.14215e-15 0)
(3 1.54933e-15 0)
(3 1.02573e-15 0)
(3 3.20843e-16 0)
(3 -3.57129e-16 0)
(3 -6.51748e-16 0)
(3 -7.3355e-16 0)
(3 -1.00862e-17 0)
(3 -3.43811e-16 0)
(3 -8.20553e-17 0)
(3 2.58601e-16 0)
(3 2.94818e-16 0)
(3 7.20397e-16 0)
(3 8.63206e-16 0)
(3 4.01246e-17 0)
(3 -3.1953e-16 0)
(3 -7.31562e-16 0)
(3 -7.08913e-16 0)
(3 -2.55158e-16 0)
(3 -9.48457e-17 0)
(3 -7.50574e-17 0)
(3 8.06141e-16 0)
(3 1.19838e-15 0)
(3 1.06389e-15 0)
(3 1.0644e-15 0)
(3 1.09181e-15 0)
(3 1.11787e-15 0)
(3 4.683e-16 0)
(3 -2.20763e-16 0)
(3 -3.19259e-16 0)
(3 -4.49325e-16 0)
(3 5.77068e-18 0)
(3 9.86721e-17 0)
(3 2.4373e-16 0)
(3 5.82962e-16 0)
(3 5.40629e-16 0)
(3 4.20844e-16 0)
(3 -1.97917e-17 0)
(3 -2.71184e-16 0)
(3 -2.68663e-16 0)
(3 -2.10652e-16 0)
(3 -4.15225e-16 0)
(3 -5.20847e-16 0)
(3 -1.59086e-17 0)
(3 2.63049e-16 0)
(3 7.48556e-16 0)
(3 8.48202e-16 0)
(3 8.89011e-16 0)
(3 6.69162e-16 0)
(3 3.6512e-16 0)
(3 4.58639e-16 0)
(3 3.62049e-16 0)
(3 3.06574e-16 0)
(3 1.88214e-16 0)
(3 1.6176e-16 0)
(3 4.75797e-17 0)
(3 2.78554e-16 0)
(3 2.39826e-16 0)
(3 2.52822e-16 0)
(3 4.44906e-16 0)
(3 6.96124e-17 0)
(3 -2.92632e-16 0)
(3 -8.33657e-16 0)
(3 -1.1272e-15 0)
(3 -7.71145e-16 0)
(3 -2.38441e-16 0)
(3 6.66157e-17 0)
(3 2.51492e-16 0)
(3 5.43372e-16 0)
(3 5.66156e-16 0)
(3 1.05969e-15 0)
(3 1.95525e-15 0)
(3 1.1713e-15 0)
(3 6.30712e-16 0)
(3 7.86565e-16 0)
(3 1.11352e-15 0)
(3 1.15657e-15 0)
(3 6.66897e-16 0)
(3 3.98354e-16 0)
(3 -4.36589e-17 0)
(3 -9.06741e-17 0)
(3 -2.41727e-16 0)
(3 -4.56562e-16 0)
(3 1.8003e-16 0)
(3 4.32667e-16 0)
(3 -1.61246e-16 0)
(3 -6.67504e-16 0)
(3 -8.58627e-16 0)
(3 -1.37346e-15 0)
(3 -1.29735e-15 0)
(3 -1.21783e-17 0)
(3 3.73031e-17 0)
(3 -9.66451e-17 0)
(3 1.96193e-16 0)
(3 2.16854e-16 0)
(3 4.50789e-16 0)
(3 4.41944e-16 0)
(3 4.11408e-16 0)
(3 5.92521e-16 0)
(3 1.21061e-15 0)
(3 1.22834e-15 0)
(3 1.57487e-15 0)
(3 1.13627e-15 0)
(3 2.95562e-16 0)
(3 1.02176e-16 0)
(3 -1.16765e-16 0)
(3 -2.51479e-16 0)
(3 -2.48309e-16 0)
(3 -4.77576e-16 0)
(3 -7.67595e-16 0)
(3 -1.21953e-16 0)
(3 5.72333e-16 0)
(3 -2.07667e-16 0)
(3 -7.47525e-16 0)
(3 -8.73504e-16 0)
(3 -1.13551e-15 0)
(3 -1.16431e-15 0)
(3 -1.16295e-15 0)
(3 -1.64323e-15 0)
(3 -1.59661e-15 0)
(3 -1.18036e-15 0)
(3 -4.50847e-16 0)
(3 -5.22484e-17 0)
(3 4.50899e-16 0)
(3 1.03115e-15 0)
(3 1.50587e-15 0)
(3 7.40815e-16 0)
(3 -1.53314e-17 0)
(3 -2.11834e-17 0)
(3 -1.83485e-16 0)
(3 -2.87619e-16 0)
(3 -1.02677e-15 0)
(3 -7.6123e-16 0)
(3 -5.84975e-16 0)
(3 -3.63454e-16 0)
(3 7.93108e-17 0)
(3 7.04125e-16 0)
(3 4.14452e-16 0)
(3 -6.06308e-16 0)
(3 -1.00734e-15 0)
(3 -6.79285e-16 0)
(3 -1.80416e-15 0)
(3 -2.30155e-15 0)
(3 -1.50611e-15 0)
(3 -4.75513e-16 0)
(3 -2.65366e-16 0)
(3 -6.2983e-16 0)
(3 -3.17614e-16 0)
(3 3.25631e-16 0)
(3 3.4592e-16 0)
(3 2.68846e-16 0)
(3 -3.41914e-16 0)
(3 -8.88889e-17 0)
(3 -1.95018e-16 0)
(3 -4.97937e-16 0)
(3 -5.30717e-16 0)
(3 1.33665e-16 0)
(3 4.49277e-16 0)
(3 1.82819e-16 0)
(3 2.48092e-16 0)
(3 8.16502e-17 0)
(3 -3.38954e-17 0)
(3 -1.27214e-15 0)
(3 -1.00023e-15 0)
(3 -1.36765e-15 0)
(3 -1.77186e-15 0)
(3 -1.5216e-15 0)
(3 -8.87157e-16 0)
(3 3.55976e-17 0)
(3 4.08527e-16 0)
(3 -2.83461e-16 0)
(3 -5.20709e-17 0)
(3 4.91524e-16 0)
(3 9.50433e-16 0)
(3 1.06125e-15 0)
(3 4.91447e-17 0)
(3 1.35473e-16 0)
(3 2.30674e-16 0)
(3 -6.68002e-17 0)
(3 4.90584e-18 0)
(3 7.77279e-16 0)
(3 1.25652e-15 0)
(3 1.455e-15 0)
(3 1.1288e-15 0)
(3 4.42445e-16 0)
(3 8.90855e-17 0)
(3 -1.24961e-16 0)
(3 -3.64184e-16 0)
(3 -4.42932e-16 0)
(3 -2.61416e-16 0)
(3 -3.78938e-17 0)
(3 -5.36591e-16 0)
(3 -9.14054e-16 0)
(3 -5.7635e-16 0)
(3 -3.35953e-16 0)
(3 -3.83449e-16 0)
(3 -3.42338e-16 0)
(3 5.57417e-17 0)
(3 3.03692e-16 0)
(3 7.04708e-17 0)
(3 -9.57558e-17 0)
(3 -6.32586e-17 0)
(3 -2.78448e-18 0)
(3 -1.07742e-16 0)
(3 -3.81321e-16 0)
(3 -2.06655e-16 0)
(3 4.97215e-16 0)
(3 1.08908e-15 0)
(3 1.18847e-15 0)
(3 1.18853e-15 0)
(3 1.32901e-15 0)
(3 8.70332e-16 0)
(3 7.41606e-16 0)
(3 7.02091e-16 0)
(3 7.54554e-16 0)
(3 -1.68392e-17 0)
(3 -1.11734e-15 0)
(3 -1.37877e-15 0)
(3 -8.7101e-16 0)
(3 -1.40158e-15 0)
(3 -1.73233e-15 0)
(3 -8.14248e-16 0)
(3 -5.72102e-16 0)
(3 -5.18068e-17 0)
(3 9.36031e-17 0)
(3 1.61049e-16 0)
(3 4.65588e-17 0)
(3 4.24035e-17 0)
(3 -6.36901e-16 0)
(3 -1.08735e-15 0)
(3 -3.92385e-17 0)
(3 2.62853e-16 0)
(3 3.52333e-16 0)
(3 5.55253e-16 0)
(3 8.96207e-16 0)
(3 8.84324e-16 0)
(3 2.13943e-16 0)
(3 1.85793e-16 0)
(3 2.6322e-16 0)
(3 6.66896e-16 0)
(3 1.2409e-16 0)
(3 -6.63992e-16 0)
(3 -1.01639e-15 0)
(3 -3.17131e-16 0)
(3 2.69902e-16 0)
(3 1.21748e-15 0)
(3 1.61325e-15 0)
(3 -7.71036e-17 0)
(3 -2.54655e-17 0)
(3 6.58442e-17 0)
(3 1.64044e-16 0)
(3 2.11604e-16 0)
(3 -8.04927e-17 0)
(3 -6.40177e-16 0)
(3 -1.07953e-15 0)
(3 -1.19136e-15 0)
(3 -4.11675e-16 0)
(3 5.51939e-16 0)
(3 1.35664e-15 0)
(3 1.78752e-15 0)
(3 1.54375e-15 0)
(3 7.13781e-16 0)
(3 1.50014e-16 0)
(3 3.94708e-16 0)
(3 2.43467e-16 0)
(3 1.30238e-15 0)
(3 1.81292e-15 0)
(3 1.97499e-15 0)
(3 2.11488e-15 0)
(3 2.37012e-15 0)
(3 1.99827e-15 0)
(3 1.60934e-16 0)
(3 1.73781e-16 0)
(3 2.80114e-16 0)
(3 5.74701e-16 0)
(3 3.59721e-16 0)
(3 -1.96241e-16 0)
(3 -4.24769e-16 0)
(3 -7.98737e-16 0)
(3 -1.53722e-15 0)
(3 -1.0454e-15 0)
(3 -2.37204e-16 0)
(3 3.83607e-16 0)
(3 5.00932e-16 0)
(3 7.10295e-16 0)
(3 7.03478e-16 0)
(3 8.90116e-16 0)
(3 6.205e-16 0)
(3 4.79106e-16 0)
(3 1.30788e-15 0)
(3 1.6493e-15 0)
(3 1.59403e-15 0)
(3 1.59684e-15 0)
(3 1.55439e-15 0)
(3 1.39223e-15 0)
(3 -2.03118e-18 0)
(3 -7.26668e-17 0)
(3 1.34641e-16 0)
(3 6.98911e-16 0)
(3 4.48924e-16 0)
(3 2.54383e-16 0)
(3 8.25066e-16 0)
(3 1.41162e-15 0)
(3 1.02203e-15 0)
(3 -1.68257e-16 0)
(3 -6.49389e-16 0)
(3 -1.20217e-15 0)
(3 -1.37856e-15 0)
(3 -8.21731e-16 0)
(3 2.83771e-17 0)
(3 2.46156e-16 0)
(3 -2.40077e-16 0)
(3 -1.1777e-16 0)
(3 1.48183e-16 0)
(3 4.11003e-16 0)
(3 7.96033e-16 0)
(3 8.92319e-16 0)
(3 6.92186e-16 0)
(3 1.00627e-15 0)
(3 -1.68954e-16 0)
(3 -4.57675e-16 0)
(3 -5.13261e-16 0)
(3 1.58208e-16 0)
(3 5.1484e-16 0)
(3 1.11006e-15 0)
(3 1.17764e-15 0)
(3 1.17887e-15 0)
(3 1.24402e-15 0)
(3 9.43457e-16 0)
(3 2.31955e-16 0)
(3 -2.68392e-16 0)
(3 -1.22074e-16 0)
(3 -4.25239e-16 0)
(3 -4.60829e-16 0)
(3 -1.00337e-15 0)
(3 -1.20575e-15 0)
(3 -1.47573e-15 0)
(3 -5.78559e-16 0)
(3 2.37553e-16 0)
(3 1.62455e-15 0)
(3 1.57721e-15 0)
(3 5.04615e-16 0)
(3 3.80147e-16 0)
(3 8.33675e-18 0)
(3 -7.76076e-17 0)
(3 -1.48687e-16 0)
(3 -1.167e-16 0)
(3 2.30512e-16 0)
(3 4.99653e-16 0)
(3 3.87233e-16 0)
(3 2.48205e-16 0)
(3 1.15059e-16 0)
(3 2.85213e-17 0)
(3 -2.02412e-17 0)
(3 2.38153e-16 0)
(3 3.86737e-16 0)
(3 3.36485e-17 0)
(3 -5.03514e-17 0)
(3 1.21668e-16 0)
(3 -9.21506e-16 0)
(3 -1.28205e-15 0)
(3 -1.01045e-15 0)
(3 -4.75637e-16 0)
(3 7.00705e-16 0)
(3 1.42481e-15 0)
(3 3.75751e-16 0)
(3 -2.59002e-17 0)
(2.93419 0.00813215 0)
(2.84478 0.0757618 0)
(2.75307 0.155796 0)
(2.68022 0.221559 0)
(2.56376 0.366867 0)
(2.51466 0.435747 0)
(2.41709 0.544832 0)
(2.35254 0.628491 0)
(2.3133 0.723803 0)
(2.25435 0.798596 0)
(2.2463 0.852879 0)
(2.2824 0.884769 0)
(2.3293 0.896049 0)
(2.33643 0.887946 0)
(2.34532 0.885143 0)
(2.34699 0.866547 0)
(2.34836 0.857725 0)
(2.34419 0.851533 0)
(2.3392 0.847385 0)
(2.34158 0.84813 0)
(2.34437 0.849468 0)
(2.34301 0.849094 0)
(2.34086 0.849195 0)
(2.33634 0.849972 0)
(2.99892 0.001016 0)
(2.98921 0.0123867 0)
(2.95981 0.0519691 0)
(2.90579 0.128525 0)
(2.7969 0.279533 0)
(2.6927 0.455542 0)
(2.51913 0.69289 0)
(2.39414 0.897524 0)
(2.22677 1.06439 0)
(2.16466 1.10777 0)
(2.14417 1.03845 0)
(2.19173 0.99304 0)
(2.24561 0.946105 0)
(2.29518 0.904222 0)
(2.33529 0.856425 0)
(2.35097 0.823417 0)
(2.35792 0.830725 0)
(2.35568 0.838443 0)
(2.35342 0.839901 0)
(2.35116 0.841029 0)
(2.3517 0.842719 0)
(2.34916 0.845008 0)
(2.34479 0.845537 0)
(2.33962 0.847918 0)
(3 -2.44118e-06 0)
(2.99999 -2.24311e-05 0)
(2.99996 0.000106989 0)
(2.99997 3.43896e-05 0)
(2.99852 0.0020406 0)
(2.99198 0.0116274 0)
(2.96433 0.0548186 0)
(2.8998 0.172727 0)
(2.77963 0.40419 0)
(2.56893 0.727324 0)
(2.46671 0.843371 0)
(2.33759 0.928511 0)
(2.29285 0.913868 0)
(2.29514 0.900581 0)
(2.31 0.888397 0)
(2.34499 0.867886 0)
(2.36043 0.862103 0)
(2.36055 0.851314 0)
(2.36084 0.840711 0)
(2.35858 0.841128 0)
(2.3561 0.84165 0)
(2.35441 0.843206 0)
(2.3501 0.844956 0)
(2.34569 0.847246 0)
(3 -1.127e-07 0)
(3 -2.07977e-07 0)
(3 -2.48878e-07 0)
(3 -6.57216e-07 0)
(3.00001 -8.76378e-06 0)
(2.99999 1.9886e-05 0)
(3.00005 -0.000124999 0)
(2.99923 0.00137144 0)
(2.99073 0.0163985 0)
(2.88877 0.176537 0)
(2.78414 0.409824 0)
(2.43196 0.794294 0)
(2.32852 0.898334 0)
(2.27802 0.944471 0)
(2.28539 0.949979 0)
(2.30381 0.928402 0)
(2.33591 0.889412 0)
(2.35189 0.858543 0)
(2.35641 0.846301 0)
(2.35886 0.839294 0)
(2.35784 0.842017 0)
(2.35713 0.848784 0)
(2.35708 0.85177 0)
(2.35229 0.852933 0)
(3 2.61139e-10 0)
(3 -6.8418e-10 0)
(3 -2.09626e-08 0)
(3 -6.69305e-08 0)
(3 -7.3008e-07 0)
(3 -7.7439e-07 0)
(3 -3.52158e-06 0)
(3 -2.25657e-06 0)
(3.00003 -7.93352e-05 0)
(2.99921 0.00101092 0)
(2.98763 0.0188499 0)
(2.85951 0.177917 0)
(2.63902 0.476082 0)
(2.47469 0.709628 0)
(2.29832 0.909775 0)
(2.27626 0.907466 0)
(2.30619 0.884374 0)
(2.32006 0.875349 0)
(2.3428 0.868237 0)
(2.35036 0.854992 0)
(2.35699 0.84562 0)
(2.3562 0.847717 0)
(2.35523 0.851358 0)
(2.35108 0.859098 0)
(3 1.21865e-11 0)
(3 3.71118e-12 0)
(3 6.02738e-11 0)
(3 -4.24071e-10 0)
(3 9.02268e-10 0)
(3 -6.34682e-08 0)
(3 -8.59698e-08 0)
(3 -2.11719e-07 0)
(3 -6.56869e-06 0)
(3 -6.3175e-06 0)
(3.00002 -5.96268e-05 0)
(2.99837 0.00204738 0)
(2.97234 0.0374702 0)
(2.84233 0.211297 0)
(2.50275 0.612018 0)
(2.40687 0.741356 0)
(2.31065 0.869645 0)
(2.2912 0.892168 0)
(2.3048 0.884984 0)
(2.32587 0.864262 0)
(2.34067 0.841603 0)
(2.34428 0.84198 0)
(2.34689 0.840932 0)
(2.34789 0.841612 0)
(3 -2.84731e-14 0)
(3 3.50999e-13 0)
(3 7.12649e-12 0)
(3 1.71763e-11 0)
(3 2.72813e-11 0)
(3 -1.44518e-10 0)
(3 -3.80964e-10 0)
(3 -1.52201e-09 0)
(3 -1.93191e-08 0)
(3 -4.37638e-07 0)
(3 -7.94567e-06 0)
(3 -4.96221e-06 0)
(2.99999 -9.4181e-06 0)
(2.99608 0.00533838 0)
(2.92785 0.088961 0)
(2.79489 0.294514 0)
(2.4103 0.732875 0)
(2.34535 0.814696 0)
(2.31406 0.850857 0)
(2.31213 0.848888 0)
(2.31902 0.842833 0)
(2.33288 0.84001 0)
(2.33863 0.838232 0)
(2.34185 0.835732 0)
(3 -9.03881e-16 0)
(3 -2.02235e-15 0)
(3 9.45786e-14 0)
(3 1.52295e-12 0)
(3 6.68642e-12 0)
(3 7.3322e-12 0)
(3 8.17346e-12 0)
(3 3.20308e-12 0)
(3 1.55838e-10 0)
(3 -9.52754e-10 0)
(3 -3.41001e-08 0)
(3 -5.89546e-07 0)
(3 -1.3317e-06 0)
(3.00001 -2.59368e-05 0)
(2.99955 0.000782022 0)
(2.98988 0.0158113 0)
(2.84919 0.191256 0)
(2.7043 0.42968 0)
(2.38006 0.782656 0)
(2.27707 0.898544 0)
(2.29151 0.860857 0)
(2.31034 0.849314 0)
(2.31656 0.846849 0)
(2.32541 0.840774 0)
(3 -1.17253e-15 0)
(3 -2.92393e-15 0)
(3 -2.56349e-15 0)
(3 7.36371e-15 0)
(3 1.00126e-13 0)
(3 9.03344e-13 0)
(3 1.68515e-12 0)
(3 1.60074e-12 0)
(3 1.463e-11 0)
(3 1.56191e-11 0)
(3 3.47041e-10 0)
(3 -4.3331e-09 0)
(3 -6.07914e-08 0)
(3 -3.93531e-06 0)
(3.00001 -2.81556e-06 0)
(3.00001 -2.70938e-05 0)
(2.99655 0.00568931 0)
(2.96871 0.0546987 0)
(2.72271 0.365167 0)
(2.54743 0.613805 0)
(2.40595 0.775771 0)
(2.31954 0.853297 0)
(2.30169 0.855723 0)
(2.30768 0.843819 0)
(3 -2.14454e-15 0)
(3 -9.625e-16 0)
(3 -1.87004e-16 0)
(3 4.02288e-16 0)
(3 5.46434e-16 0)
(3 1.00931e-14 0)
(3 4.10172e-14 0)
(3 1.22661e-13 0)
(3 3.40409e-13 0)
(3 2.16988e-12 0)
(3 4.00346e-11 0)
(3 2.39785e-11 0)
(3 6.97991e-11 0)
(3 -3.64671e-08 0)
(3 -6.19031e-07 0)
(3 -2.33004e-06 0)
(3.00001 -1.13361e-05 0)
(2.99964 0.000578845 0)
(2.97979 0.0296477 0)
(2.89476 0.174035 0)
(2.59383 0.571491 0)
(2.39445 0.809241 0)
(2.34462 0.805417 0)
(2.33377 0.820728 0)
(3 -1.71588e-15 0)
(3 -4.02066e-16 0)
(3 1.47381e-16 0)
(3 7.83863e-16 0)
(3 8.66417e-16 0)
(3 9.00837e-16 0)
(3 -8.97839e-16 0)
(3 6.80702e-17 0)
(3 1.25888e-16 0)
(3 1.13605e-14 0)
(3 6.88524e-13 0)
(3 3.15983e-12 0)
(3 1.28635e-11 0)
(3 1.05208e-10 0)
(3 -2.13619e-08 0)
(3 -1.00051e-07 0)
(3 -1.56953e-06 0)
(3 -4.45223e-06 0)
(2.9999 0.000182504 0)
(2.99586 0.0081851 0)
(2.92249 0.113031 0)
(2.69418 0.432781 0)
(2.51395 0.676797 0)
(2.333 0.865294 0)
(3 -1.16715e-15 0)
(3 -9.81217e-16 0)
(3 -4.30412e-16 0)
(3 -4.46787e-16 0)
(3 -1.4048e-16 0)
(3 -1.07123e-15 0)
(3 -3.03096e-15 0)
(3 -4.1632e-15 0)
(3 -5.46245e-15 0)
(3 -4.54182e-15 0)
(3 -1.77202e-15 0)
(3 -1.01661e-14 0)
(3 1.25425e-12 0)
(3 6.09566e-12 0)
(3 8.89163e-11 0)
(3 -1.92797e-09 0)
(3 -1.89041e-08 0)
(3 -1.01781e-06 0)
(3 -1.77751e-06 0)
(2.99999 4.73499e-06 0)
(2.99771 0.00404004 0)
(2.96328 0.0599844 0)
(2.79412 0.326336 0)
(2.51753 0.673461 0)
(3 -9.95156e-16 0)
(3 -1.04636e-16 0)
(3 3.51488e-16 0)
(3 5.90475e-16 0)
(3 3.84992e-16 0)
(3 -5.02801e-16 0)
(3 -1.47872e-15 0)
(3 -2.25852e-15 0)
(3 -2.79259e-15 0)
(3 -2.16229e-15 0)
(3 -2.51314e-15 0)
(3 -5.27439e-16 0)
(3 -4.98532e-15 0)
(3 4.57583e-13 0)
(3 9.49401e-12 0)
(3 3.0957e-11 0)
(3 -4.81787e-11 0)
(3 -2.718e-08 0)
(3 -5.80035e-07 0)
(3 -7.04428e-07 0)
(3 1.33452e-06 0)
(2.99937 0.0013004 0)
(2.98159 0.0319969 0)
(2.82387 0.264284 0)
(3 -5.265e-16 0)
(3 -2.38196e-16 0)
(3 -2.74282e-16 0)
(3 -2.31898e-16 0)
(3 -3.41364e-16 0)
(3 -2.53286e-16 0)
(3 -6.74803e-16 0)
(3 -1.28688e-15 0)
(3 -1.9891e-15 0)
(3 -2.22516e-15 0)
(3 -2.97397e-15 0)
(3 -3.42695e-15 0)
(3 -3.62231e-15 0)
(3 -2.813e-16 0)
(3 7.89741e-13 0)
(3 8.77178e-12 0)
(3 8.81623e-12 0)
(3 -1.35491e-10 0)
(3 -2.28379e-08 0)
(3 -1.92042e-07 0)
(3 -2.49741e-07 0)
(3 -1.24337e-06 0)
(2.99968 0.000577897 0)
(2.9892 0.0202409 0)
(3 -1.12163e-15 0)
(3 -1.58263e-15 0)
(3 -2.36312e-15 0)
(3 -2.89386e-15 0)
(3 -3.30362e-15 0)
(3 -1.96061e-15 0)
(3 -1.18999e-15 0)
(3 -1.20716e-15 0)
(3 -1.3387e-15 0)
(3 -2.66024e-15 0)
(3 -3.00858e-15 0)
(3 -2.41111e-15 0)
(3 -2.3906e-15 0)
(3 -2.60963e-15 0)
(3 7.59097e-16 0)
(3 4.24664e-13 0)
(3 2.14829e-12 0)
(3 2.71674e-12 0)
(3 -6.70615e-11 0)
(3 -1.04312e-08 0)
(3 -3.58721e-08 0)
(3 -4.22353e-07 0)
(3 -4.88163e-06 0)
(2.99997 0.000103624 0)
(3 -6.87338e-16 0)
(3 -1.84679e-15 0)
(3 -3.40493e-15 0)
(3 -3.51791e-15 0)
(3 -3.10847e-15 0)
(3 -1.51857e-15 0)
(3 -9.47187e-16 0)
(3 -1.43801e-15 0)
(3 -1.77987e-15 0)
(3 -2.52187e-15 0)
(3 -2.7097e-15 0)
(3 -2.16029e-15 0)
(3 -2.41014e-15 0)
(3 -2.74916e-15 0)
(3 -2.21888e-15 0)
(3 2.21261e-15 0)
(3 5.22819e-14 0)
(3 1.00566e-12 0)
(3 1.87381e-12 0)
(3 -5.29012e-11 0)
(3 -9.97244e-10 0)
(3 -1.48629e-07 0)
(3 4.76483e-08 0)
(3 -1.23474e-06 0)
(3 -9.52716e-16 0)
(3 -1.28709e-15 0)
(3 -2.25657e-15 0)
(3 -2.29708e-15 0)
(3 -1.31286e-15 0)
(3 -1.01893e-15 0)
(3 -1.40424e-15 0)
(3 -1.25217e-15 0)
(3 -1.54365e-15 0)
(3 -1.11181e-15 0)
(3 -1.02044e-15 0)
(3 -2.00524e-15 0)
(3 -2.28493e-15 0)
(3 -2.16518e-15 0)
(3 -1.7593e-15 0)
(3 -9.74574e-16 0)
(3 -7.0755e-14 0)
(3 -4.72683e-13 0)
(3 -2.58809e-13 0)
(3 3.69857e-11 0)
(3 5.93068e-09 0)
(3 5.63446e-09 0)
(3 2.91985e-07 0)
(3 -1.14423e-08 0)
(3 -6.40057e-16 0)
(3 -4.25746e-16 0)
(3 -3.08184e-16 0)
(3 -6.24928e-16 0)
(3 -2.01052e-15 0)
(3 -2.63538e-15 0)
(3 -2.68441e-15 0)
(3 -1.46747e-15 0)
(3 5.14429e-16 0)
(3 1.85007e-15 0)
(3 1.21151e-15 0)
(3 4.3163e-16 0)
(3 5.0715e-16 0)
(3 6.40386e-16 0)
(3 -5.16252e-15 0)
(3 -3.41093e-13 0)
(3 -1.96182e-12 0)
(3 -2.01409e-12 0)
(3 9.92448e-11 0)
(3 6.50964e-09 0)
(3 4.59194e-08 0)
(3 3.92525e-07 0)
(3.00001 -5.5625e-06 0)
(3.00003 8.87816e-05 0)
(3 7.47609e-16 0)
(3 1.32183e-15 0)
(3 1.30434e-15 0)
(3 7.60668e-16 0)
(3 -1.19436e-16 0)
(3 -6.84791e-16 0)
(3 -6.12287e-16 0)
(3 -6.68815e-16 0)
(3 7.56799e-16 0)
(3 1.98968e-15 0)
(3 1.58757e-15 0)
(3 1.00924e-15 0)
(3 1.35382e-15 0)
(3 -2.33776e-15 0)
(3 -8.99786e-13 0)
(3 -8.21411e-12 0)
(3 -7.24779e-12 0)
(3 -1.40792e-11 0)
(3 2.65113e-08 0)
(3 1.05738e-07 0)
(3 2.44058e-07 0)
(3 2.34869e-06 0)
(2.99962 -0.000795658 0)
(2.99315 -0.0149552 0)
(3 1.3037e-15 0)
(3 2.26979e-15 0)
(3 2.0507e-15 0)
(3 1.59608e-15 0)
(3 1.1183e-15 0)
(3 7.8204e-16 0)
(3 1.18261e-15 0)
(3 8.82531e-16 0)
(3 1.24844e-16 0)
(3 8.53635e-16 0)
(3 1.34447e-15 0)
(3 -1.62404e-15 0)
(3 -1.46033e-15 0)
(3 -3.69261e-13 0)
(3 -1.34274e-11 0)
(3 -2.84515e-11 0)
(3 5.22897e-11 0)
(3 2.21742e-08 0)
(3 6.09248e-07 0)
(3 4.84219e-07 0)
(3 3.27369e-06 0)
(2.99935 -0.00127156 0)
(2.97907 -0.0387862 0)
(2.86645 -0.225823 0)
(3 2.04929e-16 0)
(3 2.06606e-16 0)
(3 1.03739e-15 0)
(3 9.39845e-16 0)
(3 6.98021e-16 0)
(3 1.18223e-15 0)
(3 1.31475e-15 0)
(3 1.14246e-15 0)
(3 1.12318e-15 0)
(3 -4.9751e-16 0)
(3 -3.16598e-15 0)
(3 -1.25748e-14 0)
(3 -1.47905e-12 0)
(3 -5.27346e-12 0)
(3 -9.5025e-11 0)
(3 2.09954e-09 0)
(3 1.69919e-08 0)
(3 1.22252e-06 0)
(3 1.51422e-06 0)
(2.99999 -5.44181e-06 0)
(2.99765 -0.00391533 0)
(2.96395 -0.0629995 0)
(2.80405 -0.315106 0)
(2.52464 -0.69265 0)
(3 -1.50937e-15 0)
(3 -1.47501e-15 0)
(3 1.55373e-16 0)
(3 1.19902e-15 0)
(3 1.55365e-15 0)
(3 1.29049e-15 0)
(3 1.44939e-16 0)
(3 -2.41969e-15 0)
(3 -1.85636e-15 0)
(3 -8.38231e-15 0)
(3 -7.30083e-13 0)
(3 -3.2081e-12 0)
(3 -1.31295e-11 0)
(3 -1.1117e-10 0)
(3 2.18663e-08 0)
(3 9.93102e-08 0)
(3 1.56255e-06 0)
(3 4.67191e-06 0)
(2.99989 -0.000211409 0)
(2.99632 -0.00754193 0)
(2.91625 -0.12106 0)
(2.71576 -0.413384 0)
(2.50959 -0.678578 0)
(2.34357 -0.882936 0)
(3 4.69911e-16 0)
(3 1.46973e-16 0)
(3 1.24682e-16 0)
(3 1.05055e-15 0)
(3 1.03748e-15 0)
(3 -8.34496e-15 0)
(3 -3.75822e-14 0)
(3 -1.29814e-13 0)
(3 -2.99761e-13 0)
(3 -2.18428e-12 0)
(3 -3.96667e-11 0)
(3 -2.49439e-11 0)
(3 -7.54046e-11 0)
(3 3.72243e-08 0)
(3 5.83367e-07 0)
(3 2.37069e-06 0)
(3.00001 1.14036e-05 0)
(2.99965 -0.000567299 0)
(2.97929 -0.030683 0)
(2.90083 -0.168427 0)
(2.58053 -0.588755 0)
(2.40951 -0.786744 0)
(2.3452 -0.81618 0)
(2.33354 -0.826319 0)
(3 1.30732e-15 0)
(3 3.25266e-15 0)
(3 2.20984e-15 0)
(3 -6.74877e-15 0)
(3 -9.90014e-14 0)
(3 -9.02893e-13 0)
(3 -1.68335e-12 0)
(3 -1.60161e-12 0)
(3 -1.41597e-11 0)
(3 -1.55594e-11 0)
(3 -3.46781e-10 0)
(3 4.26798e-09 0)
(3 6.22839e-08 0)
(3 3.90502e-06 0)
(3.00001 2.79872e-06 0)
(3.00001 2.82775e-05 0)
(2.99654 -0.00570795 0)
(2.96893 -0.0545197 0)
(2.72259 -0.365499 0)
(2.5444 -0.617968 0)
(2.40855 -0.774768 0)
(2.32097 -0.847952 0)
(2.30489 -0.85581 0)
(2.30865 -0.847854 0)
(3 1.06519e-15 0)
(3 2.64135e-15 0)
(3 -9.41305e-14 0)
(3 -1.52283e-12 0)
(3 -6.68022e-12 0)
(3 -7.35292e-12 0)
(3 -8.1635e-12 0)
(3 -3.20155e-12 0)
(3 -1.4982e-10 0)
(3 9.06318e-10 0)
(3 3.49881e-08 0)
(3 5.87457e-07 0)
(3 1.34353e-06 0)
(3.00001 2.59388e-05 0)
(2.99955 -0.000783685 0)
(2.98989 -0.0157775 0)
(2.84911 -0.19139 0)
(2.70515 -0.429358 0)
(2.38192 -0.781266 0)
(2.27748 -0.901955 0)
(2.28811 -0.860929 0)
(2.31078 -0.847461 0)
(2.31815 -0.846044 0)
(2.32541 -0.842004 0)
(3 2.85319e-14 0)
(3 -3.51077e-13 0)
(3 -7.09696e-12 0)
(3 -1.71578e-11 0)
(3 -2.72583e-11 0)
(3 1.39396e-10 0)
(3 3.87552e-10 0)
(3 1.52134e-09 0)
(3 1.93024e-08 0)
(3 4.37526e-07 0)
(3 7.94703e-06 0)
(3 4.96939e-06 0)
(2.99999 1.00297e-05 0)
(2.99608 -0.00534956 0)
(2.92785 -0.0889275 0)
(2.79476 -0.294591 0)
(2.40979 -0.733278 0)
(2.34702 -0.813475 0)
(2.31409 -0.851175 0)
(2.31152 -0.849773 0)
(2.31829 -0.843241 0)
(2.33278 -0.838578 0)
(2.3394 -0.838382 0)
(2.34152 -0.836316 0)
(3 -1.22191e-11 0)
(3 -3.71753e-12 0)
(3 -5.9996e-11 0)
(3 4.21452e-10 0)
(3 -8.97818e-10 0)
(3 6.34616e-08 0)
(3 8.59888e-08 0)
(3 2.11861e-07 0)
(3 6.56899e-06 0)
(3 6.31684e-06 0)
(3.00002 5.95522e-05 0)
(2.99837 -0.00204585 0)
(2.97233 -0.0374692 0)
(2.84235 -0.211316 0)
(2.50282 -0.611896 0)
(2.40649 -0.741711 0)
(2.3106 -0.869596 0)
(2.29139 -0.891787 0)
(2.30481 -0.884844 0)
(2.32547 -0.864764 0)
(2.34054 -0.841717 0)
(2.34444 -0.84143 0)
(2.34704 -0.841072 0)
(2.34798 -0.841656 0)
(3 -2.62427e-10 0)
(3 6.88078e-10 0)
(3 2.09851e-08 0)
(3 6.70321e-08 0)
(3 7.30351e-07 0)
(3 7.74412e-07 0)
(3 3.52407e-06 0)
(3 2.26063e-06 0)
(3.00003 7.93473e-05 0)
(2.99921 -0.0010106 0)
(2.98762 -0.0188567 0)
(2.85958 -0.177839 0)
(2.6388 -0.476299 0)
(2.47493 -0.709446 0)
(2.29838 -0.909669 0)
(2.27623 -0.907651 0)
(2.30616 -0.884434 0)
(2.31995 -0.875266 0)
(2.3431 -0.867915 0)
(2.34989 -0.855524 0)
(2.35692 -0.845603 0)
(2.35621 -0.847486 0)
(2.3553 -0.851164 0)
(2.35116 -0.859046 0)
(3 1.12771e-07 0)
(3 2.08531e-07 0)
(3 2.48523e-07 0)
(3 6.56671e-07 0)
(3.00001 8.76697e-06 0)
(2.99999 -1.98874e-05 0)
(3.00005 0.000124984 0)
(2.99923 -0.00137119 0)
(2.99073 -0.0163996 0)
(2.88878 -0.176522 0)
(2.78414 -0.409821 0)
(2.43193 -0.794324 0)
(2.32853 -0.89835 0)
(2.27803 -0.944399 0)
(2.28542 -0.949958 0)
(2.30379 -0.928474 0)
(2.33585 -0.889543 0)
(2.35199 -0.858326 0)
(2.35662 -0.84616 0)
(2.35872 -0.8395 0)
(2.35768 -0.842109 0)
(2.357 -0.848667 0)
(2.35707 -0.851664 0)
(2.35235 -0.85296 0)
(3 2.43385e-06 0)
(2.99999 2.24758e-05 0)
(2.99996 -0.000107071 0)
(2.99997 -3.43498e-05 0)
(2.99852 -0.00204027 0)
(2.99197 -0.0116308 0)
(2.96433 -0.0548153 0)
(2.89981 -0.172722 0)
(2.77962 -0.404205 0)
(2.56894 -0.727303 0)
(2.46671 -0.843356 0)
(2.33757 -0.928518 0)
(2.29284 -0.913876 0)
(2.29513 -0.900579 0)
(2.31003 -0.888338 0)
(2.34499 -0.867982 0)
(2.36027 -0.862224 0)
(2.36061 -0.851208 0)
(2.36096 -0.840641 0)
(2.35863 -0.841202 0)
(2.35603 -0.841716 0)
(2.35431 -0.843146 0)
(2.35008 -0.8449 0)
(2.34572 -0.847295 0)
(2.99893 -0.00101516 0)
(2.98921 -0.0123874 0)
(2.95981 -0.0519747 0)
(2.9058 -0.128525 0)
(2.7969 -0.279517 0)
(2.69267 -0.455559 0)
(2.51915 -0.692886 0)
(2.39414 -0.897528 0)
(2.22678 -1.0644 0)
(2.16466 -1.10776 0)
(2.14413 -1.03846 0)
(2.19183 -0.993041 0)
(2.24553 -0.946086 0)
(2.29514 -0.904231 0)
(2.33538 -0.856341 0)
(2.35107 -0.823498 0)
(2.35778 -0.830805 0)
(2.35565 -0.838432 0)
(2.35347 -0.839873 0)
(2.35122 -0.841023 0)
(2.35167 -0.84272 0)
(2.34912 -0.844998 0)
(2.34477 -0.845532 0)
(2.33963 -0.847941 0)
(2.9342 -0.00809705 0)
(2.84478 -0.0757792 0)
(2.75305 -0.155854 0)
(2.68026 -0.221484 0)
(2.56375 -0.366879 0)
(2.51461 -0.435784 0)
(2.41711 -0.544814 0)
(2.35253 -0.628484 0)
(2.31331 -0.723802 0)
(2.25436 -0.798603 0)
(2.24629 -0.852876 0)
(2.28241 -0.884767 0)
(2.32929 -0.896074 0)
(2.33642 -0.887915 0)
(2.34533 -0.885117 0)