/*--------------------------------*- C++ -*----------------------------------*\
  =========                 |
  \\      /  F ield         | OpenFOAM: The Open Source CFD Toolbox
   \\    /   O peration     | Website:  https://openfoam.org
    \\  /    A nd           | Version:  7
     \\/     M anipulation  |
\*---------------------------------------------------------------------------*/
FoamFile
{
    version     2.0;
    format      ascii;
    class       volVectorField;
    location    "1.7";
    object      U;
}
// * * * * * * * * * * * * * * * * * * * * * * * * * * * * * * * * * * * * * //

dimensions      [0 1 -1 0 0 0 0];

internalField   nonuniform List<vector> 
73728
(
(3 -3.90963e-17 0)
(3 1.53218e-16 0)
(3 2.88787e-16 0)
(3 6.18143e-17 0)
(3 -3.56573e-16 0)
(3 -5.66636e-16 0)
(3 -4.1827e-16 0)
(3 -3.92224e-16 0)
(3 -8.15206e-16 0)
(3 -1.14512e-15 0)
(3 -1.24136e-15 0)
(3 -8.34336e-16 0)
(3 -1.9368e-16 0)
(3 -1.06751e-16 0)
(3 1.57199e-16 0)
(3 1.29991e-15 0)
(3 1.11788e-15 0)
(3 8.70991e-16 0)
(3 8.29414e-16 0)
(3 8.6629e-16 0)
(3 3.32343e-16 0)
(3 1.39039e-16 0)
(3 1.18223e-16 0)
(3 1.7939e-16 0)
(3 2.9854e-16 0)
(3 2.78105e-16 0)
(3 3.99816e-16 0)
(3 3.68807e-16 0)
(3 4.5859e-16 0)
(3 6.14093e-16 0)
(3 8.41323e-16 0)
(3 4.59746e-16 0)
(3 1.02772e-15 0)
(3 1.27656e-15 0)
(3 1.16551e-15 0)
(3 1.05936e-15 0)
(3 2.28613e-16 0)
(3 -5.70257e-16 0)
(3 -1.3831e-16 0)
(3 6.05882e-16 0)
(3 1.74897e-15 0)
(3 1.67857e-15 0)
(3 6.78115e-16 0)
(3 8.43024e-16 0)
(3 9.92934e-16 0)
(3 5.33191e-16 0)
(3 1.41444e-16 0)
(3 -4.06063e-16 0)
(3 -1.12093e-15 0)
(3 -1.21629e-15 0)
(3 -8.8337e-16 0)
(3 -3.00816e-16 0)
(3 -1.14586e-16 0)
(3 -5.26471e-16 0)
(3 1.44844e-16 0)
(3 9.46482e-16 0)
(3 1.19172e-15 0)
(3 -9.66359e-16 0)
(3 -1.52689e-15 0)
(3 -7.28157e-16 0)
(3 -2.4922e-16 0)
(3 -1.96458e-16 0)
(3 -1.74075e-16 0)
(3 -2.30346e-16 0)
(3 1.233e-16 0)
(3 7.3333e-17 0)
(3 -2.80052e-16 0)
(3 -2.88736e-16 0)
(3 -4.01237e-16 0)
(3 6.18178e-16 0)
(3 1.12026e-15 0)
(3 9.89542e-16 0)
(3 7.30388e-16 0)
(3 1.71174e-16 0)
(3 -1.13835e-16 0)
(3 -4.90089e-16 0)
(3 -4.07601e-16 0)
(3 -5.69494e-16 0)
(3 -7.96815e-16 0)
(3 -6.42579e-16 0)
(3 -2.19907e-16 0)
(3 -3.11746e-16 0)
(3 -1.74529e-16 0)
(3 -2.03591e-16 0)
(3 -3.41085e-16 0)
(3 -6.47132e-16 0)
(3 -8.5863e-16 0)
(3 -7.57487e-16 0)
(3 -5.23975e-16 0)
(3 -3.06843e-16 0)
(3 3.14022e-16 0)
(3 7.85742e-16 0)
(3 7.31089e-16 0)
(3 -1.48305e-16 0)
(3 4.26912e-16 0)
(3 7.5087e-16 0)
(3 3.61395e-17 0)
(3 -1.58977e-16 0)
(3 -1.07699e-16 0)
(3 -1.03722e-16 0)
(3 -1.34933e-16 0)
(3 -1.35198e-16 0)
(3 2.37802e-16 0)
(3 5.45541e-16 0)
(3 -1.00759e-18 0)
(3 -7.28463e-16 0)
(3 -1.18178e-15 0)
(3 -1.01545e-15 0)
(3 -4.15901e-16 0)
(3 -7.12446e-17 0)
(3 8.25932e-16 0)
(3 1.99904e-15 0)
(3 1.71315e-15 0)
(3 1.25861e-15 0)
(3 1.57642e-15 0)
(3 1.4031e-15 0)
(3 -4.56089e-17 0)
(3 -8.04169e-16 0)
(3 -6.8912e-16 0)
(3 -2.31063e-16 0)
(3 -1.1612e-16 0)
(3 -1.99717e-16 0)
(3 2.4188e-17 0)
(3 6.37101e-16 0)
(3 1.01974e-15 0)
(3 7.35319e-16 0)
(3 5.00119e-16 0)
(3 -6.92826e-16 0)
(3 7.26993e-16 0)
(3 1.09481e-15 0)
(3 9.06954e-16 0)
(3 7.7176e-16 0)
(3 -1.78207e-16 0)
(3 -1.37702e-15 0)
(3 -9.91283e-16 0)
(3 3.24733e-16 0)
(3 1.64279e-15 0)
(3 1.34271e-15 0)
(3 3.22113e-16 0)
(3 4.20794e-16 0)
(3 5.03494e-16 0)
(3 5.26397e-16 0)
(3 8.12512e-16 0)
(3 8.01949e-16 0)
(3 -4.55915e-16 0)
(3 -1.10951e-15 0)
(3 -3.44498e-16 0)
(3 8.78386e-16 0)
(3 1.00686e-15 0)
(3 1.90804e-16 0)
(3 5.76872e-16 0)
(3 5.9336e-16 0)
(3 7.57694e-16 0)
(3 -4.21349e-16 0)
(3 -9.97061e-16 0)
(3 -1.15879e-16 0)
(3 -6.10742e-17 0)
(3 -6.31643e-16 0)
(3 -8.51349e-16 0)
(3 -1.4315e-15 0)
(3 -3.52511e-16 0)
(3 1.41982e-16 0)
(3 -5.35463e-16 0)
(3 -1.22623e-15 0)
(3 -1.00684e-15 0)
(3 8.7226e-16 0)
(3 1.43041e-15 0)
(3 7.35146e-16 0)
(3 -4.1736e-16 0)
(3 -1.39482e-15 0)
(3 -6.69329e-16 0)
(3 9.15577e-17 0)
(3 -5.09247e-16 0)
(3 -9.54504e-16 0)
(3 -1.93287e-15 0)
(3 -1.8189e-15 0)
(3 -1.38884e-15 0)
(3 -1.83379e-15 0)
(3 -1.33444e-15 0)
(3 -1.12569e-15 0)
(3 -1.27224e-15 0)
(3 -1.53947e-15 0)
(3 -1.47333e-15 0)
(3 -8.08997e-16 0)
(3 -1.80122e-16 0)
(3 -3.93416e-16 0)
(3 -1.97144e-18 0)
(3 5.02145e-16 0)
(3 5.68909e-16 0)
(3 3.72783e-16 0)
(3 2.04039e-16 0)
(3 -6.13748e-16 0)
(3 -1.22355e-17 0)
(3 -2.84286e-16 0)
(3 -3.17524e-16 0)
(3 -2.64011e-16 0)
(3 8.81061e-17 0)
(3 3.53303e-16 0)
(3 1.21492e-15 0)
(3 1.25094e-15 0)
(3 9.32848e-16 0)
(3 6.26133e-18 0)
(3 -7.34909e-16 0)
(3 -8.06303e-16 0)
(3 -1.89091e-16 0)
(3 1.71867e-16 0)
(3 1.62753e-15 0)
(3 1.80768e-15 0)
(3 1.32873e-15 0)
(3 1.2993e-15 0)
(3 1.18954e-15 0)
(3 6.9991e-16 0)
(3 4.46147e-16 0)
(3 -3.92816e-16 0)
(3 -2.15232e-16 0)
(3 3.30701e-16 0)
(3 3.94783e-16 0)
(3 1.23183e-16 0)
(3 -4.71142e-16 0)
(3 3.35795e-16 0)
(3 1.20834e-15 0)
(3 1.42131e-15 0)
(3 7.06267e-16 0)
(3 1.30563e-16 0)
(3 7.22233e-16 0)
(3 8.6354e-16 0)
(3 8.64767e-17 0)
(3 -1.34076e-15 0)
(3 -1.08773e-15 0)
(3 -8.95726e-17 0)
(3 -5.76073e-16 0)
(3 -1.93393e-15 0)
(3 -2.37916e-15 0)
(3 -1.26938e-15 0)
(3 5.82801e-16 0)
(3 1.05528e-15 0)
(3 7.30402e-16 0)
(3 8.18656e-16 0)
(3 6.26744e-16 0)
(3 2.15622e-16 0)
(3 -2.12549e-16 0)
(3 -4.01104e-16 0)
(3 -7.72852e-16 0)
(3 -8.21144e-16 0)
(3 -1.00339e-15 0)
(3 -1.00642e-15 0)
(3 -4.5959e-17 0)
(3 6.73716e-16 0)
(3 6.7389e-16 0)
(3 1.1054e-15 0)
(3 5.63319e-16 0)
(3 5.1427e-16 0)
(3 5.37457e-17 0)
(3 1.0737e-16 0)
(3 -1.43669e-15 0)
(3 -2.43655e-15 0)
(3 -2.38765e-15 0)
(3 -1.69995e-15 0)
(3 -1.389e-15 0)
(3 -1.11112e-15 0)
(3 -5.07772e-16 0)
(3 2.70009e-16 0)
(3 3.42839e-16 0)
(3 3.33023e-16 0)
(3 1.14384e-16 0)
(3 1.08243e-16 0)
(3 3.54393e-16 0)
(3 3.24096e-16 0)
(3 -1.62551e-16 0)
(3 -8.6105e-16 0)
(3 -9.87816e-16 0)
(3 -1.46922e-15 0)
(3 -1.8394e-15 0)
(3 -1.28738e-15 0)
(3 -7.38282e-16 0)
(3 -8.58561e-16 0)
(3 -1.20453e-15 0)
(3 -2.48813e-16 0)
(3 2.47513e-16 0)
(3 2.76563e-16 0)
(3 -4.51516e-16 0)
(3 4.20852e-16 0)
(3 2.69319e-16 0)
(3 -5.57657e-16 0)
(3 -9.02045e-17 0)
(3 7.26547e-17 0)
(3 -5.93932e-16 0)
(3 -1.6489e-15 0)
(3 -2.43097e-16 0)
(3 -2.60406e-16 0)
(3 -2.65473e-16 0)
(3 -6.25103e-16 0)
(3 -4.3194e-16 0)
(3 9.24384e-17 0)
(3 5.80915e-16 0)
(3 9.09336e-16 0)
(3 4.75471e-16 0)
(3 -1.23966e-16 0)
(3 -5.64968e-16 0)
(3 -1.81822e-16 0)
(3 1.14745e-16 0)
(3 2.39059e-16 0)
(3 6.83618e-17 0)
(3 -1.8163e-16 0)
(3 -2.63868e-16 0)
(3 -3.01239e-16 0)
(3 -5.94718e-17 0)
(3 -1.03649e-16 0)
(3 1.69486e-16 0)
(3 2.71038e-16 0)
(3 1.87808e-16 0)
(3 7.03603e-16 0)
(3 4.79676e-16 0)
(3 -2.0882e-16 0)
(3 -2.02042e-16 0)
(3 -5.39767e-16 0)
(3 -4.33891e-16 0)
(3 -4.31735e-16 0)
(3 -5.18509e-16 0)
(3 4.97865e-17 0)
(3 9.96901e-16 0)
(3 1.33232e-15 0)
(3 6.495e-16 0)
(3 3.89616e-16 0)
(3 -1.44773e-15 0)
(3 -1.93925e-15 0)
(3 -1.88305e-15 0)
(3 -1.50316e-15 0)
(3 -8.8765e-16 0)
(3 7.29404e-16 0)
(3 2.37078e-15 0)
(3 2.04392e-15 0)
(3 1.89437e-15 0)
(3 2.9104e-15 0)
(3 3.01551e-15 0)
(3 1.19478e-15 0)
(3 7.3927e-16 0)
(3 7.22587e-16 0)
(3 -1.43085e-15 0)
(3 -2.43729e-15 0)
(3 -2.0406e-15 0)
(3 -1.30703e-15 0)
(3 -5.23372e-16 0)
(3 7.97564e-17 0)
(3 5.31351e-16 0)
(3 1.10081e-15 0)
(3 1.08836e-15 0)
(3 9.51164e-16 0)
(3 4.33446e-16 0)
(3 2.65022e-16 0)
(3 -3.30051e-16 0)
(3 -1.11341e-15 0)
(3 -2.35593e-15 0)
(3 -2.93312e-15 0)
(3 -2.30965e-15 0)
(3 -1.3666e-15 0)
(3 -1.1776e-15 0)
(3 -1.82926e-15 0)
(3 -2.00819e-15 0)
(3 -1.37913e-15 0)
(3 -2.04154e-16 0)
(3 -9.63817e-17 0)
(3 5.00075e-16 0)
(3 7.57157e-17 0)
(3 -7.74132e-17 0)
(3 -8.23816e-16 0)
(3 -6.74604e-16 0)
(3 -7.39916e-16 0)
(3 -3.97924e-16 0)
(3 3.10535e-16 0)
(3 2.61962e-16 0)
(3 -2.16887e-16 0)
(3 1.17435e-16 0)
(3 9.96253e-16 0)
(3 1.91928e-15 0)
(3 1.60403e-15 0)
(3 8.43654e-16 0)
(3 7.75065e-16 0)
(3 1.35952e-15 0)
(3 1.17648e-15 0)
(3 8.56714e-16 0)
(3 -5.22964e-16 0)
(3 -1.0266e-15 0)
(3 -1.8461e-15 0)
(3 1.02266e-16 0)
(3 9.96058e-17 0)
(3 2.15987e-16 0)
(3 3.80285e-16 0)
(3 8.28997e-16 0)
(3 6.85819e-16 0)
(3 2.55472e-16 0)
(3 8.41564e-16 0)
(3 8.38164e-16 0)
(3 1.01215e-15 0)
(3 1.1224e-15 0)
(3 6.18612e-16 0)
(3 -1.89316e-17 0)
(3 1.51729e-17 0)
(3 -4.29945e-16 0)
(3 -9.58863e-16 0)
(3 -9.04511e-16 0)
(3 -1.0325e-15 0)
(3 -6.43819e-16 0)
(3 -3.35247e-16 0)
(3 5.83115e-16 0)
(3 9.13714e-16 0)
(3 5.74044e-16 0)
(3 -2.22352e-16 0)
(3 -2.16787e-16 0)
(3 5.55218e-17 0)
(3 5.61432e-16 0)
(3 6.06162e-16 0)
(3 9.01525e-17 0)
(3 -3.54579e-16 0)
(3 -4.88024e-16 0)
(3 2.4332e-16 0)
(3 9.42963e-16 0)
(3 5.40792e-16 0)
(3 2.23076e-16 0)
(3 -1.68095e-16 0)
(3 -1.64529e-15 0)
(3 -2.55482e-15 0)
(3 -2.08272e-15 0)
(3 -8.14791e-16 0)
(3 -2.18419e-16 0)
(3 -2.25177e-17 0)
(3 5.90252e-17 0)
(3 4.45916e-17 0)
(3 9.07234e-16 0)
(3 1.64518e-15 0)
(3 1.549e-15 0)
(3 1.39224e-15 0)
(3 1.39929e-15 0)
(3 3.38723e-16 0)
(3 -2.1359e-15 0)
(3 -2.79426e-15 0)
(3 -1.51118e-15 0)
(3 -2.98939e-16 0)
(3 -8.64104e-16 0)
(3 -1.26806e-15 0)
(3 -1.00609e-15 0)
(3 -3.922e-16 0)
(3 1.09646e-16 0)
(3 6.62012e-16 0)
(3 1.77102e-16 0)
(3 -1.0228e-15 0)
(3 -5.48672e-16 0)
(3 9.15818e-17 0)
(3 -7.70781e-16 0)
(3 -1.25467e-15 0)
(3 -1.00229e-15 0)
(3 -2.73026e-16 0)
(3 -5.70879e-16 0)
(3 -1.50004e-15 0)
(3 -1.31204e-15 0)
(3 -9.44249e-16 0)
(3 -3.02044e-16 0)
(3 3.72767e-16 0)
(3 8.92835e-16 0)
(3 6.96895e-16 0)
(3 7.83311e-16 0)
(3 7.77518e-16 0)
(3 2.92571e-16 0)
(3 2.97701e-16 0)
(3 -1.7849e-17 0)
(3 -1.04588e-15 0)
(3 -1.642e-15 0)
(3 -9.07188e-16 0)
(3 2.63393e-16 0)
(3 1.80109e-15 0)
(3 1.94665e-15 0)
(3 2.3303e-15 0)
(3 2.59603e-15 0)
(3 1.98522e-15 0)
(3 2.47685e-15 0)
(3 2.70268e-15 0)
(3 1.86118e-15 0)
(3 -9.53303e-17 0)
(3 -5.78009e-16 0)
(3 -9.76112e-16 0)
(3 -7.90298e-18 0)
(3 1.91024e-16 0)
(3 2.73881e-16 0)
(3 4.49183e-16 0)
(3 3.80907e-16 0)
(3 3.02658e-16 0)
(3 1.08614e-16 0)
(3 2.71265e-16 0)
(3 3.03046e-16 0)
(3 8.12441e-16 0)
(3 1.68397e-15 0)
(3 1.29827e-15 0)
(3 4.33828e-16 0)
(3 -4.1408e-17 0)
(3 -1.07258e-16 0)
(3 -5.3615e-16 0)
(3 -8.51959e-16 0)
(3 -8.73853e-16 0)
(3 -9.87691e-16 0)
(3 -5.39819e-16 0)
(3 1.08122e-15 0)
(3 1.82742e-15 0)
(3 1.89721e-15 0)
(3 7.41604e-16 0)
(3 4.25992e-16 0)
(3 1.0647e-15 0)
(3 1.14026e-15 0)
(3 1.09134e-15 0)
(3 3.75186e-16 0)
(3 2.32881e-16 0)
(3 5.72789e-16 0)
(3 6.14021e-16 0)
(3 7.90071e-16 0)
(3 -3.43188e-17 0)
(3 -5.72899e-16 0)
(3 -1.24503e-15 0)
(3 -1.2316e-15 0)
(3 -6.42022e-16 0)
(3 -1.43543e-16 0)
(3 1.00313e-16 0)
(3 5.80635e-16 0)
(3 -1.09489e-16 0)
(3 -1.85576e-15 0)
(3 -2.19025e-15 0)
(3 -1.31928e-15 0)
(3 -1.06552e-15 0)
(3 -1.33105e-15 0)
(3 -1.34785e-15 0)
(3 -1.08752e-15 0)
(3 -4.62577e-16 0)
(3 -9.4885e-16 0)
(3 -2.11367e-15 0)
(3 -2.33369e-15 0)
(3 -4.59733e-16 0)
(3 2.82019e-17 0)
(3 -8.06674e-17 0)
(3 -2.69722e-16 0)
(3 -9.80499e-16 0)
(3 -1.62578e-15 0)
(3 -2.51995e-15 0)
(3 -2.64665e-15 0)
(3 -2.79367e-15 0)
(3 -1.36562e-15 0)
(3 6.58416e-16 0)
(3 4.63837e-16 0)
(3 3.59269e-16 0)
(3 2.27935e-16 0)
(3 -9.82588e-16 0)
(3 -1.30161e-15 0)
(3 -1.39181e-15 0)
(3 -1.43241e-15 0)
(3 -1.10684e-15 0)
(3 -9.41982e-16 0)
(3 -3.09965e-16 0)
(3 -4.64578e-16 0)
(3 -8.61733e-16 0)
(3 -2.90221e-16 0)
(3 1.03355e-15 0)
(3 1.07875e-15 0)
(3 5.02039e-16 0)
(3 -5.14321e-16 0)
(3 -1.36207e-15 0)
(3 -9.44995e-16 0)
(3 -6.70023e-16 0)
(3 1.83308e-16 0)
(3 7.873e-16 0)
(3 1.16342e-15 0)
(3 2.57222e-15 0)
(3 3.64785e-15 0)
(3 4.06296e-15 0)
(3 3.88109e-15 0)
(3 3.31535e-15 0)
(3 1.14648e-15 0)
(3 1.0596e-16 0)
(3 2.10137e-17 0)
(3 -3.31552e-16 0)
(3 1.02366e-16 0)
(3 -1.80577e-16 0)
(3 -7.789e-16 0)
(3 -5.5829e-16 0)
(3 -9.11707e-16 0)
(3 -7.41372e-16 0)
(3 -6.83125e-16 0)
(3 -8.2366e-16 0)
(3 -5.83485e-16 0)
(3 -7.49815e-16 0)
(3 -5.4735e-16 0)
(3 1.96602e-17 0)
(3 2.10245e-16 0)
(3 -5.65465e-17 0)
(3 -1.1726e-16 0)
(3 -6.74642e-16 0)
(3 -6.81821e-16 0)
(3 -6.32463e-16 0)
(3 -1.05985e-15 0)
(3 -1.11254e-15 0)
(3 -1.67337e-16 0)
(3 4.57899e-16 0)
(3 4.43898e-16 0)
(3 4.71722e-16 0)
(3 1.12155e-15 0)
(3 1.74032e-15 0)
(3 1.87596e-15 0)
(3 1.54952e-15 0)
(3 1.14975e-15 0)
(3 1.19775e-15 0)
(3 1.46832e-15 0)
(3 2.01974e-16 0)
(3 -5.65794e-16 0)
(3 -1.28661e-15 0)
(3 -1.39472e-15 0)
(3 -1.3619e-15 0)
(3 -9.28584e-16 0)
(3 -1.14801e-16 0)
(3 -4.20987e-16 0)
(3 -6.46188e-16 0)
(3 -2.69442e-16 0)
(3 -7.08435e-16 0)
(3 -1.98115e-15 0)
(3 -2.14474e-15 0)
(3 -2.11051e-15 0)
(3 -1.58201e-15 0)
(3 1.32314e-16 0)
(3 1.5243e-16 0)
(3 -2.1072e-16 0)
(3 -5.40226e-16 0)
(3 -4.56509e-16 0)
(3 -1.44307e-15 0)
(3 -1.333e-15 0)
(3 3.53245e-16 0)
(3 1.07332e-15 0)
(3 2.25981e-15 0)
(3 2.35267e-15 0)
(3 3.01688e-16 0)
(3 -2.05666e-15 0)
(3 -2.51616e-15 0)
(3 -2.55641e-15 0)
(3 -1.65224e-15 0)
(3 -1.23593e-15 0)
(3 -1.6854e-15 0)
(3 -1.19161e-15 0)
(3 -1.44571e-15 0)
(3 -3.22219e-15 0)
(3 -3.46995e-15 0)
(3 -3.27467e-15 0)
(3 -2.85855e-15 0)
(3 -2.32936e-15 0)
(3 -1.13023e-15 0)
(3 -8.38348e-16 0)
(3 -1.10042e-15 0)
(3 -2.28373e-15 0)
(3 -1.65648e-15 0)
(3 -1.31142e-15 0)
(3 -4.3417e-16 0)
(3 -7.79808e-16 0)
(3 -1.01746e-15 0)
(3 -5.86241e-16 0)
(3 -2.58828e-16 0)
(3 6.677e-16 0)
(3 1.38946e-15 0)
(3 1.80597e-15 0)
(3 1.64737e-15 0)
(3 1.69949e-15 0)
(3 2.04298e-15 0)
(3 2.22624e-15 0)
(3 2.11481e-15 0)
(3 1.9422e-15 0)
(3 1.31647e-15 0)
(3 1.29075e-17 0)
(3 -1.20049e-15 0)
(3 -2.20825e-15 0)
(3 -2.55169e-15 0)
(3 2.06556e-16 0)
(3 1.89906e-16 0)
(3 1.4887e-16 0)
(3 7.41841e-17 0)
(3 -3.25429e-16 0)
(3 -6.266e-16 0)
(3 -9.06303e-16 0)
(3 -1.01077e-15 0)
(3 -6.23555e-16 0)
(3 -7.87148e-16 0)
(3 -9.43295e-16 0)
(3 -2.86715e-16 0)
(3 1.67886e-16 0)
(3 2.25238e-16 0)
(3 -1.80602e-16 0)
(3 -4.07652e-16 0)
(3 -1.24771e-17 0)
(3 -1.57864e-16 0)
(3 -5.09217e-16 0)
(3 -1.23099e-15 0)
(3 -2.36509e-15 0)
(3 -2.55803e-15 0)
(3 -2.32976e-15 0)
(3 -1.74865e-15 0)
(3 4.30715e-17 0)
(3 9.81954e-16 0)
(3 1.79196e-15 0)
(3 2.24885e-15 0)
(3 3.06276e-15 0)
(3 3.69438e-15 0)
(3 2.82238e-15 0)
(3 1.12457e-15 0)
(3 -1.03845e-17 0)
(3 -1.323e-15 0)
(3 -1.14158e-15 0)
(3 -5.05879e-16 0)
(3 -1.0296e-15 0)
(3 -1.59164e-15 0)
(3 -1.55327e-15 0)
(3 -1.20253e-15 0)
(3 -6.20994e-16 0)
(3 -2.30512e-16 0)
(3 -9.9191e-16 0)
(3 -1.61244e-15 0)
(3 -7.55041e-16 0)
(3 1.02486e-15 0)
(3 1.61154e-15 0)
(3 8.1694e-16 0)
(3 -1.12063e-15 0)
(3 -1.22303e-15 0)
(3 -6.12642e-16 0)
(3 -3.27395e-17 0)
(3 7.40894e-16 0)
(3 6.01146e-16 0)
(3 9.27803e-16 0)
(3 1.27242e-15 0)
(3 1.51605e-15 0)
(3 -1.2029e-15 0)
(3 -1.61476e-15 0)
(3 -1.29005e-15 0)
(3 -1.18783e-15 0)
(3 -2.43762e-15 0)
(3 -3.05369e-15 0)
(3 -4.33216e-15 0)
(3 -5.13239e-15 0)
(3 -5.21713e-15 0)
(3 -4.68658e-15 0)
(3 -4.23695e-15 0)
(3 -4.29401e-15 0)
(3 -3.49911e-15 0)
(3 -2.20884e-15 0)
(3 -1.03039e-15 0)
(3 -3.57731e-16 0)
(3 -5.54131e-16 0)
(3 -1.57261e-15 0)
(3 -1.75104e-15 0)
(3 -1.16405e-15 0)
(3 -1.38984e-15 0)
(3 -2.0851e-15 0)
(3 -2.01901e-15 0)
(3 -1.56994e-15 0)
(3 -7.97943e-16 0)
(3 -4.15078e-16 0)
(3 2.15924e-16 0)
(3 8.79146e-16 0)
(3 5.05266e-16 0)
(3 4.50824e-16 0)
(3 1.1068e-15 0)
(3 1.70983e-15 0)
(3 1.20398e-15 0)
(3 8.10848e-16 0)
(3 7.69035e-17 0)
(3 -1.81112e-16 0)
(3 -4.99704e-16 0)
(3 -1.9776e-15 0)
(3 -2.68555e-15 0)
(3 -2.86008e-16 0)
(3 3.95962e-17 0)
(3 2.55197e-16 0)
(3 -5.29426e-16 0)
(3 -5.99711e-16 0)
(3 -9.72492e-16 0)
(3 -1.29165e-15 0)
(3 -1.45128e-15 0)
(3 -1.33433e-15 0)
(3 -5.76557e-16 0)
(3 2.48704e-16 0)
(3 -1.95572e-16 0)
(3 -4.71314e-16 0)
(3 -5.23193e-16 0)
(3 -8.06056e-16 0)
(3 -1.17864e-16 0)
(3 4.6533e-16 0)
(3 5.43896e-16 0)
(3 -2.478e-16 0)
(3 -1.482e-15 0)
(3 -1.99208e-15 0)
(3 -2.78717e-15 0)
(3 -1.85021e-15 0)
(3 -1.37761e-15 0)
(3 -6.36319e-16 0)
(3 6.55334e-16 0)
(3 1.90561e-15 0)
(3 2.02515e-15 0)
(3 2.19988e-15 0)
(3 2.4384e-15 0)
(3 2.46567e-15 0)
(3 1.35979e-15 0)
(3 5.39586e-16 0)
(3 2.10337e-16 0)
(3 3.58152e-16 0)
(3 3.79629e-16 0)
(3 -4.07226e-16 0)
(3 -1.31323e-15 0)
(3 -1.79326e-15 0)
(3 -2.15156e-15 0)
(3 -1.78392e-15 0)
(3 -1.04965e-15 0)
(3 -5.34989e-16 0)
(3 -5.05959e-16 0)
(3 -2.53206e-16 0)
(3 -3.40452e-16 0)
(3 -2.61668e-16 0)
(3 -4.55548e-16 0)
(3 -5.29717e-16 0)
(3 3.71693e-17 0)
(3 5.82366e-16 0)
(3 1.66749e-15 0)
(3 2.34469e-15 0)
(3 1.18998e-15 0)
(3 5.57279e-16 0)
(3 2.27761e-16 0)
(3 -2.71203e-16 0)
(3 -9.86273e-16 0)
(3 -9.40861e-16 0)
(3 -1.75142e-15 0)
(3 -2.11554e-15 0)
(3 -2.88973e-15 0)
(3 -3.40403e-15 0)
(3 -3.94125e-15 0)
(3 -4.94766e-15 0)
(3 -5.53284e-15 0)
(3 -4.52279e-15 0)
(3 -3.94393e-15 0)
(3 -3.50712e-15 0)
(3 -2.36054e-15 0)
(3 -2.29748e-15 0)
(3 -2.39108e-15 0)
(3 -1.73001e-15 0)
(3 -1.30821e-15 0)
(3 -1.99159e-15 0)
(3 -3.00764e-15 0)
(3 -2.1817e-15 0)
(3 -3.0087e-15 0)
(3 -2.94899e-15 0)
(3 -2.39552e-15 0)
(3 -1.71328e-15 0)
(3 -9.5608e-16 0)
(3 -8.90465e-16 0)
(3 -7.35478e-16 0)
(3 7.72809e-16 0)
(3 1.34888e-15 0)
(3 1.85754e-15 0)
(3 2.05703e-15 0)
(3 1.9575e-15 0)
(3 1.02317e-15 0)
(3 6.33965e-17 0)
(3 -7.08435e-16 0)
(3 -7.68785e-16 0)
(3 -5.41487e-16 0)
(3 -1.59155e-15 0)
(3 -1.49161e-15 0)
(3 3.19625e-17 0)
(3 2.49448e-16 0)
(3 -2.7787e-17 0)
(3 -1.45612e-16 0)
(3 -1.29508e-16 0)
(3 -5.40768e-16 0)
(3 -5.31757e-16 0)
(3 -6.33239e-16 0)
(3 -8.55798e-16 0)
(3 -6.7855e-16 0)
(3 -4.18165e-16 0)
(3 -5.73053e-16 0)
(3 -7.37013e-16 0)
(3 -8.87704e-16 0)
(3 -5.87264e-16 0)
(3 -4.65184e-16 0)
(3 -6.36398e-16 0)
(3 -3.70228e-16 0)
(3 -1.98122e-15 0)
(3 -2.7079e-15 0)
(3 -2.20585e-15 0)
(3 -4.51467e-17 0)
(3 1.21839e-16 0)
(3 -2.35047e-16 0)
(3 -2.31077e-16 0)
(3 4.80676e-17 0)
(3 3.46903e-16 0)
(3 6.68858e-16 0)
(3 5.32301e-16 0)
(3 6.62421e-16 0)
(3 5.31789e-16 0)
(3 5.63341e-17 0)
(3 -1.0982e-16 0)
(3 -7.0136e-17 0)
(3 -3.14449e-16 0)
(3 -5.30779e-16 0)
(3 -6.67183e-16 0)
(3 -6.99231e-16 0)
(3 -9.74733e-16 0)
(3 -2.08475e-15 0)
(3 -2.40731e-15 0)
(3 -1.45229e-15 0)
(3 -2.75295e-16 0)
(3 6.24881e-16 0)
(3 -1.80323e-16 0)
(3 -1.06516e-15 0)
(3 -1.14488e-15 0)
(3 1.75134e-17 0)
(3 -1.31513e-16 0)
(3 -6.53351e-16 0)
(3 -8.13958e-16 0)
(3 9.57409e-16 0)
(3 2.3283e-15 0)
(3 2.59663e-15 0)
(3 1.26549e-15 0)
(3 -4.47891e-16 0)
(3 -1.61031e-15 0)
(3 -8.39819e-16 0)
(3 -8.65814e-16 0)
(3 -1.49884e-15 0)
(3 -1.5604e-15 0)
(3 -1.6234e-15 0)
(3 -2.14521e-15 0)
(3 -2.90168e-15 0)
(3 -1.68175e-15 0)
(3 -9.28089e-16 0)
(3 -2.28347e-15 0)
(3 -2.47044e-15 0)
(3 -2.19868e-15 0)
(3 -1.81211e-15 0)
(3 -1.86202e-15 0)
(3 -1.91494e-15 0)
(3 -2.22867e-15 0)
(3 -2.19118e-15 0)
(3 -2.1788e-15 0)
(3 -2.18676e-15 0)
(3 -2.06787e-15 0)
(3 -1.01635e-15 0)
(3 -1.1059e-15 0)
(3 -1.34436e-15 0)
(3 -6.56115e-16 0)
(3 -5.33603e-16 0)
(3 -3.80126e-16 0)
(3 -6.95766e-16 0)
(3 -4.25285e-16 0)
(3 5.83215e-16 0)
(3 1.0141e-15 0)
(3 6.44498e-16 0)
(3 5.48776e-16 0)
(3 -4.09826e-16 0)
(3 -1.29996e-15 0)
(3 -2.01736e-15 0)
(3 -2.88494e-15 0)
(3 -2.10661e-15 0)
(3 -1.28147e-15 0)
(3 -4.47714e-16 0)
(3 2.48196e-16 0)
(3 1.72613e-16 0)
(3 1.7689e-16 0)
(3 4.60976e-16 0)
(3 7.2412e-16 0)
(3 8.38223e-16 0)
(3 7.3011e-16 0)
(3 4.32357e-16 0)
(3 9.20626e-16 0)
(3 1.21132e-15 0)
(3 3.80652e-16 0)
(3 -6.18968e-16 0)
(3 -6.3325e-16 0)
(3 -4.74567e-16 0)
(3 -3.56965e-16 0)
(3 -2.03321e-16 0)
(3 -9.90572e-16 0)
(3 -1.33869e-15 0)
(3 -2.21975e-15 0)
(3 -2.83355e-15 0)
(3 -1.78283e-15 0)
(3 -1.86056e-16 0)
(3 -2.4843e-16 0)
(3 -1.35246e-16 0)
(3 -1.56313e-16 0)
(3 -6.01697e-16 0)
(3 -2.08817e-15 0)
(3 -2.08944e-15 0)
(3 -5.45722e-16 0)
(3 -3.02322e-16 0)
(3 -4.55776e-16 0)
(3 1.4027e-16 0)
(3 6.37063e-16 0)
(3 1.02574e-15 0)
(3 -6.37778e-16 0)
(3 -9.18302e-16 0)
(3 4.00056e-17 0)
(3 7.92477e-16 0)
(3 1.38136e-16 0)
(3 -4.90335e-16 0)
(3 -1.12541e-15 0)
(3 -1.40898e-15 0)
(3 -1.62821e-15 0)
(3 -1.95528e-15 0)
(3 -2.03631e-15 0)
(3 -1.8958e-15 0)
(3 -3.02774e-15 0)
(3 -2.60893e-15 0)
(3 -1.96065e-15 0)
(3 -1.32178e-15 0)
(3 -6.09409e-16 0)
(3 1.71852e-16 0)
(3 2.61876e-16 0)
(3 -3.48719e-16 0)
(3 -6.56633e-16 0)
(3 -1.02981e-15 0)
(3 -1.14298e-15 0)
(3 -1.07181e-15 0)
(3 -6.40131e-16 0)
(3 -7.43692e-16 0)
(3 -2.62127e-17 0)
(3 5.61394e-16 0)
(3 3.99476e-16 0)
(3 6.15175e-16 0)
(3 8.28844e-16 0)
(3 -2.67516e-16 0)
(3 -1.70265e-15 0)
(3 -2.24078e-15 0)
(3 -2.18769e-15 0)
(3 -3.52646e-15 0)
(3 -3.40776e-15 0)
(3 -3.70859e-15 0)
(3 -3.9452e-15 0)
(3 -4.71003e-15 0)
(3 -3.0294e-15 0)
(3 -2.69244e-16 0)
(3 -1.00234e-16 0)
(3 4.65948e-16 0)
(3 3.43522e-16 0)
(3 -1.50428e-16 0)
(3 -1.14468e-15 0)
(3 -1.61163e-15 0)
(3 -1.42633e-15 0)
(3 -5.60074e-16 0)
(3 -9.22577e-16 0)
(3 -1.59504e-15 0)
(3 -1.5616e-15 0)
(3 -6.99915e-16 0)
(3 -5.89714e-17 0)
(3 -4.15851e-16 0)
(3 -8.76911e-16 0)
(3 -1.6923e-15 0)
(3 -1.88007e-15 0)
(3 -2.5488e-15 0)
(3 -2.38033e-15 0)
(3 -1.29839e-15 0)
(3 -1.32642e-16 0)
(3 -2.09193e-16 0)
(3 -5.92563e-17 0)
(3 -2.94385e-16 0)
(3 -1.47467e-16 0)
(3 2.82151e-16 0)
(3 3.47284e-16 0)
(3 4.99408e-16 0)
(3 1.21605e-15 0)
(3 1.06275e-15 0)
(3 8.20012e-16 0)
(3 3.17748e-16 0)
(3 -5.08147e-16 0)
(3 -7.42474e-16 0)
(3 -8.81537e-16 0)
(3 -8.00206e-16 0)
(3 -9.84448e-16 0)
(3 -1.37567e-15 0)
(3 -1.25614e-15 0)
(3 -1.04205e-15 0)
(3 -7.44792e-16 0)
(3 -4.37707e-16 0)
(3 8.99244e-17 0)
(3 5.98774e-16 0)
(3 6.37947e-16 0)
(3 1.09879e-16 0)
(3 -1.49736e-15 0)
(3 -1.70887e-15 0)
(3 -1.39741e-15 0)
(3 -1.03314e-15 0)
(3 -9.0458e-16 0)
(3 -7.48075e-16 0)
(3 -4.20192e-16 0)
(3 -2.67937e-16 0)
(3 -4.56527e-16 0)
(3 -9.79806e-16 0)
(3 4.10559e-16 0)
(3 1.70717e-15 0)
(3 1.23578e-15 0)
(3 8.71475e-16 0)
(3 5.9106e-16 0)
(3 3.88986e-18 0)
(3 -3.22451e-16 0)
(3 -1.00923e-15 0)
(3 -2.23516e-15 0)
(3 -2.92673e-15 0)
(3 -4.40477e-15 0)
(3 -3.78118e-15 0)
(3 -1.67868e-15 0)
(3 -7.27713e-16 0)
(3 -2.90193e-16 0)
(3 -8.12928e-16 0)
(3 -1.9015e-15 0)
(3 -2.07155e-15 0)
(3 -2.24836e-15 0)
(3 -9.66319e-16 0)
(3 -2.06482e-17 0)
(3 4.71782e-16 0)
(3 1.55089e-15 0)
(3 1.4204e-15 0)
(3 9.01488e-16 0)
(3 4.26521e-16 0)
(3 -1.26988e-16 0)
(3 3.54806e-16 0)
(3 4.2948e-16 0)
(3 2.15099e-16 0)
(3 -5.61038e-16 0)
(3 -1.38956e-15 0)
(3 -1.55358e-15 0)
(3 -2.26867e-15 0)
(3 -1.30092e-15 0)
(3 -1.27311e-15 0)
(3 -1.97527e-15 0)
(3 -2.98353e-15 0)
(3 -2.74115e-15 0)
(3 -1.4423e-15 0)
(3 -1.34048e-15 0)
(3 -1.90438e-15 0)
(3 -1.38602e-15 0)
(3 -7.13581e-16 0)
(3 -1.39785e-15 0)
(3 -2.31e-15 0)
(3 -1.77302e-15 0)
(3 -6.28188e-16 0)
(3 5.08938e-16 0)
(3 9.22765e-16 0)
(3 1.55742e-15 0)
(3 1.41284e-15 0)
(3 1.14141e-15 0)
(3 2.2033e-16 0)
(3 -5.57619e-16 0)
(3 -6.86633e-16 0)
(3 -1.60558e-15 0)
(3 -2.42092e-15 0)
(3 -2.51528e-15 0)
(3 -1.89327e-15 0)
(3 -1.38807e-17 0)
(3 2.09487e-16 0)
(3 2.23923e-16 0)
(3 2.25436e-16 0)
(3 3.78908e-16 0)
(3 4.15752e-16 0)
(3 6.46261e-16 0)
(3 1.36998e-15 0)
(3 8.00525e-16 0)
(3 1.4262e-17 0)
(3 -2.01484e-17 0)
(3 -8.0034e-17 0)
(3 -1.77781e-16 0)
(3 -3.61127e-16 0)
(3 -2.28801e-16 0)
(3 -1.06267e-15 0)
(3 -1.87921e-15 0)
(3 -1.8015e-15 0)
(3 -1.07881e-15 0)
(3 8.89443e-17 0)
(3 1.10084e-16 0)
(3 7.26044e-16 0)
(3 1.31192e-15 0)
(3 1.6506e-15 0)
(3 4.3722e-16 0)
(3 -1.30716e-15 0)
(3 -1.36085e-15 0)
(3 -1.04348e-15 0)
(3 -1.41198e-15 0)
(3 -1.72754e-15 0)
(3 -1.52687e-15 0)
(3 -1.28387e-15 0)
(3 -1.55909e-15 0)
(3 -1.33922e-15 0)
(3 8.91004e-16 0)
(3 1.12414e-15 0)
(3 1.48345e-15 0)
(3 2.06714e-15 0)
(3 2.41257e-15 0)
(3 1.50514e-15 0)
(3 7.07412e-16 0)
(3 1.88468e-16 0)
(3 -1.06506e-17 0)
(3 -1.45031e-15 0)
(3 -2.41463e-15 0)
(3 -3.34331e-15 0)
(3 -3.2177e-15 0)
(3 -2.48959e-15 0)
(3 -1.5596e-15 0)
(3 -1.00567e-15 0)
(3 -1.15167e-15 0)
(3 -1.81871e-15 0)
(3 -2.30088e-15 0)
(3 -2.29774e-15 0)
(3 -1.88011e-15 0)
(3 -1.81597e-15 0)
(3 -2.70289e-15 0)
(3 -2.06675e-15 0)
(3 -1.60055e-15 0)
(3 -1.17902e-15 0)
(3 -1.07655e-15 0)
(3 -1.05873e-15 0)
(3 -1.35599e-15 0)
(3 -1.14861e-15 0)
(3 5.26633e-16 0)
(3 1.42841e-15 0)
(3 1.28843e-15 0)
(3 4.42239e-16 0)
(3 5.17124e-17 0)
(3 -3.05794e-16 0)
(3 -4.60705e-16 0)
(3 -3.20394e-16 0)
(3 -1.16757e-15 0)
(3 -2.01522e-15 0)
(3 -2.00858e-15 0)
(3 -1.98914e-15 0)
(3 -1.6906e-15 0)
(3 -1.9622e-15 0)
(3 -1.13016e-15 0)
(3 -9.26343e-16 0)
(3 -9.68042e-16 0)
(3 -2.12235e-15 0)
(3 -3.01065e-15 0)
(3 -3.20498e-15 0)
(3 -3.00081e-15 0)
(3 -2.30471e-15 0)
(3 -1.16541e-15 0)
(3 -6.29031e-16 0)
(3 2.6727e-16 0)
(3 4.80296e-17 0)
(3 -5.18923e-16 0)
(3 -5.82837e-16 0)
(3 -1.17128e-15 0)
(3 -1.31761e-15 0)
(3 -9.61535e-16 0)
(3 -3.81688e-16 0)
(3 1.38468e-16 0)
(3 5.33384e-17 0)
(3 2.96375e-16 0)
(3 9.4296e-16 0)
(3 7.87017e-16 0)
(3 8.17605e-16 0)
(3 6.47988e-16 0)
(3 4.32496e-16 0)
(3 2.36633e-16 0)
(3 4.08023e-16 0)
(3 -1.39432e-17 0)
(3 -5.48371e-16 0)
(3 -4.04937e-16 0)
(3 -7.32216e-17 0)
(3 2.15509e-16 0)
(3 2.98151e-16 0)
(3 6.15644e-16 0)
(3 7.81464e-16 0)
(3 1.24015e-15 0)
(3 1.13923e-15 0)
(3 2.44343e-15 0)
(3 2.57498e-15 0)
(3 2.236e-15 0)
(3 6.55161e-16 0)
(3 -6.90169e-16 0)
(3 -7.33244e-16 0)
(3 -5.55302e-16 0)
(3 -7.97662e-16 0)
(3 -1.16564e-15 0)
(3 -1.04305e-15 0)
(3 -4.37707e-16 0)
(3 -4.66274e-16 0)
(3 -9.11909e-16 0)
(3 -5.02507e-16 0)
(3 6.39267e-16 0)
(3 2.44057e-15 0)
(3 2.22363e-15 0)
(3 2.87977e-15 0)
(3 3.34521e-15 0)
(3 3.42971e-15 0)
(3 2.49657e-15 0)
(3 1.40333e-15 0)
(3 5.76954e-16 0)
(3 -3.33811e-17 0)
(3 -2.60445e-16 0)
(3 -1.60531e-15 0)
(3 -1.93947e-15 0)
(3 -1.94073e-15 0)
(3 -1.68506e-15 0)
(3 -9.57829e-16 0)
(3 -6.79533e-16 0)
(3 -7.1023e-16 0)
(3 -1.25092e-15 0)
(3 -2.02146e-15 0)
(3 -7.67297e-16 0)
(3 2.63419e-16 0)
(3 7.03629e-16 0)
(3 -2.1506e-16 0)
(3 -5.40936e-16 0)
(3 -8.1945e-16 0)
(3 -1.15089e-15 0)
(3 -1.65758e-15 0)
(3 -1.14032e-15 0)
(3 -1.41968e-15 0)
(3 -1.16791e-15 0)
(3 -5.98849e-16 0)
(3 1.29451e-16 0)
(3 8.97706e-16 0)
(3 1.21187e-15 0)
(3 1.06966e-15 0)
(3 -3.20785e-17 0)
(3 -8.88238e-18 0)
(3 2.59743e-16 0)
(3 1.75763e-16 0)
(3 -5.2722e-16 0)
(3 -6.61932e-16 0)
(3 -9.63358e-16 0)
(3 -9.72133e-16 0)
(3 -7.47362e-16 0)
(3 -1.49014e-15 0)
(3 -1.91374e-15 0)
(3 -1.38532e-15 0)
(3 -3.02993e-15 0)
(3 -5.23417e-15 0)
(3 -4.72039e-15 0)
(3 -4.15437e-15 0)
(3 -3.93484e-15 0)
(3 -3.4146e-15 0)
(3 -8.05702e-16 0)
(3 -3.91887e-17 0)
(3 -4.68294e-16 0)
(3 -5.69697e-16 0)
(3 -8.15713e-16 0)
(3 -8.96843e-16 0)
(3 1.25548e-16 0)
(3 3.14861e-16 0)
(3 -3.56478e-17 0)
(3 -3.61164e-16 0)
(3 -4.77349e-16 0)
(3 -3.98321e-16 0)
(3 -4.84927e-16 0)
(3 -7.16921e-16 0)
(3 -7.75068e-16 0)
(3 -1.26619e-15 0)
(3 -1.99923e-15 0)
(3 -1.45541e-15 0)
(3 -1.44845e-15 0)
(3 -1.6228e-15 0)
(3 -1.96237e-15 0)
(3 -1.3989e-15 0)
(3 -8.82593e-16 0)
(3 2.03679e-16 0)
(3 1.86798e-15 0)
(3 2.82451e-15 0)
(3 2.93523e-15 0)
(3 3.1264e-15 0)
(3 2.94382e-15 0)
(3 2.10464e-15 0)
(3 7.46059e-16 0)
(3 -3.30413e-16 0)
(3 -1.19158e-15 0)
(3 -1.27744e-15 0)
(3 -5.99005e-16 0)
(3 -1.03695e-15 0)
(3 -1.4702e-15 0)
(3 -1.29574e-15 0)
(3 -8.24174e-16 0)
(3 -7.4161e-16 0)
(3 -4.0879e-16 0)
(3 4.97542e-16 0)
(3 6.6552e-16 0)
(3 2.45499e-15 0)
(3 2.51449e-15 0)
(3 1.56147e-15 0)
(3 1.20558e-15 0)
(3 1.52331e-15 0)
(3 1.79557e-15 0)
(3 1.82321e-15 0)
(3 1.47496e-15 0)
(3 1.92834e-15 0)
(3 9.97562e-16 0)
(3 8.37291e-16 0)
(3 -8.34184e-16 0)
(3 -1.86079e-15 0)
(3 -1.69412e-15 0)
(3 -1.50753e-15 0)
(3 -1.41912e-15 0)
(3 -1.31239e-15 0)
(3 -1.55953e-15 0)
(3 -1.75849e-15 0)
(3 -1.11665e-15 0)
(3 -6.55313e-16 0)
(3 -4.28406e-16 0)
(3 -2.38378e-16 0)
(3 -2.05766e-16 0)
(3 -2.58832e-16 0)
(3 -4.98582e-16 0)
(3 -9.12096e-16 0)
(3 1.03358e-16 0)
(3 -7.87307e-17 0)
(3 -5.92532e-16 0)
(3 -5.78019e-16 0)
(3 4.12387e-16 0)
(3 1.37899e-15 0)
(3 2.24454e-15 0)
(3 2.42815e-15 0)
(3 1.31557e-15 0)
(3 6.63519e-16 0)
(3 1.1009e-15 0)
(3 1.62167e-15 0)
(3 1.18209e-15 0)
(3 -1.68915e-16 0)
(3 -1.61322e-15 0)
(3 -1.70712e-15 0)
(3 -1.71373e-15 0)
(3 -1.03525e-15 0)
(3 -5.70109e-16 0)
(3 6.01761e-16 0)
(3 -1.23485e-15 0)
(3 -2.33358e-15 0)
(3 -3.08739e-15 0)
(3 -3.17758e-15 0)
(3 -3.59579e-15 0)
(3 -3.66139e-15 0)
(3 -1.91422e-15 0)
(3 -1.90794e-15 0)
(3 -1.39498e-15 0)
(3 -1.06356e-15 0)
(3 3.28703e-16 0)
(3 7.08558e-16 0)
(3 -6.1733e-16 0)
(3 -8.33448e-16 0)
(3 -1.34528e-16 0)
(3 -1.12035e-16 0)
(3 -4.65188e-17 0)
(3 -2.23703e-16 0)
(3 -3.73584e-17 0)
(3 -1.40931e-16 0)
(3 -3.25651e-16 0)
(3 -7.27254e-16 0)
(3 -1.41081e-15 0)
(3 -1.79482e-15 0)
(3 -1.63316e-15 0)
(3 -1.29409e-15 0)
(3 -3.71201e-16 0)
(3 -1.61359e-17 0)
(3 -2.00127e-16 0)
(3 1.67856e-16 0)
(3 1.13125e-15 0)
(3 2.24203e-15 0)
(3 2.05357e-15 0)
(3 3.01043e-15 0)
(3 2.34972e-15 0)
(3 1.36678e-15 0)
(3 1.17501e-15 0)
(3 4.99585e-16 0)
(3 9.73548e-16 0)
(3 4.55069e-16 0)
(3 -4.95882e-16 0)
(3 -8.476e-16 0)
(3 -7.41504e-16 0)
(3 -1.33432e-15 0)
(3 -1.68844e-15 0)
(3 -4.41228e-16 0)
(3 7.99434e-17 0)
(3 -1.82101e-17 0)
(3 -3.22923e-16 0)
(3 2.52355e-16 0)
(3 -2.98412e-17 0)
(3 -9.99552e-16 0)
(3 -1.43734e-15 0)
(3 -1.03246e-15 0)
(3 -4.754e-16 0)
(3 -2.4467e-16 0)
(3 1.607e-16 0)
(3 7.75183e-16 0)
(3 1.35619e-15 0)
(3 1.40262e-15 0)
(3 -1.39075e-17 0)
(3 -6.34848e-16 0)
(3 -5.46782e-16 0)
(3 -1.03066e-15 0)
(3 -7.68478e-16 0)
(3 -7.8096e-16 0)
(3 -1.87668e-16 0)
(3 -4.23966e-16 0)
(3 -1.03409e-15 0)
(3 -1.44478e-15 0)
(3 -2.6796e-15 0)
(3 -2.69811e-15 0)
(3 -2.24064e-15 0)
(3 -5.87741e-16 0)
(3 1.60103e-16 0)
(3 1.73381e-16 0)
(3 -1.78756e-16 0)
(3 1.41577e-16 0)
(3 2.74054e-16 0)
(3 3.69174e-16 0)
(3 9.28415e-16 0)
(3 8.46475e-16 0)
(3 1.26461e-15 0)
(3 1.93842e-15 0)
(3 2.03806e-15 0)
(3 1.5976e-15 0)
(3 8.0495e-16 0)
(3 7.0827e-16 0)
(3 6.4999e-16 0)
(3 1.76129e-16 0)
(3 7.8019e-17 0)
(3 4.83258e-16 0)
(3 7.04123e-16 0)
(3 1.30596e-15 0)
(3 3.03851e-15 0)
(3 4.1941e-15 0)
(3 2.88148e-15 0)
(3 -2.66248e-17 0)
(3 -1.61253e-15 0)
(3 -1.88876e-15 0)
(3 -1.42844e-15 0)
(3 -1.03339e-15 0)
(3 -1.71287e-15 0)
(3 -2.02076e-15 0)
(3 -6.12787e-16 0)
(3 -3.44092e-16 0)
(3 -2.51256e-18 0)
(3 -3.37566e-16 0)
(3 -1.8018e-15 0)
(3 -2.85255e-15 0)
(3 1.59245e-17 0)
(3 1.86049e-16 0)
(3 2.63618e-16 0)
(3 3.86229e-16 0)
(3 4.26464e-16 0)
(3 2.47484e-16 0)
(3 2.13342e-16 0)
(3 4.12347e-16 0)
(3 7.68434e-16 0)
(3 3.51761e-16 0)
(3 -5.02021e-19 0)
(3 3.50667e-16 0)
(3 2.48171e-15 0)
(3 3.40362e-15 0)
(3 2.90096e-15 0)
(3 2.50517e-15 0)
(3 1.50903e-15 0)
(3 -7.97329e-17 0)
(3 1.13346e-16 0)
(3 -5.72892e-18 0)
(3 -4.02051e-16 0)
(3 -5.23799e-16 0)
(3 1.95548e-16 0)
(3 1.16063e-15 0)
(3 1.92487e-15 0)
(3 1.83768e-15 0)
(3 7.05229e-16 0)
(3 4.68575e-16 0)
(3 4.2069e-16 0)
(3 2.59565e-16 0)
(3 -1.32113e-16 0)
(3 -1.75279e-16 0)
(3 -1.90871e-16 0)
(3 -1.10104e-15 0)
(3 -1.26928e-15 0)
(3 -1.54276e-15 0)
(3 -1.686e-15 0)
(3 -1.5852e-15 0)
(3 -2.49536e-16 0)
(3 4.08425e-16 0)
(3 9.78005e-17 0)
(3 3.19487e-16 0)
(3 9.56096e-16 0)
(3 9.14782e-16 0)
(3 1.10587e-15 0)
(3 1.93373e-15 0)
(3 2.4675e-15 0)
(3 2.55678e-15 0)
(3 1.27339e-15 0)
(3 1.7072e-15 0)