/*--------------------------------*- C++ -*----------------------------------*\
  =========                 |
  \\      /  F ield         | OpenFOAM: The Open Source CFD Toolbox
   \\    /   O peration     | Website:  https://openfoam.org
    \\  /    A nd           | Version:  7
     \\/     M anipulation  |
\*---------------------------------------------------------------------------*/
FoamFile
{
    version     2.0;
    format      ascii;
    class       volVectorField;
    location    "1.9";
    object      U;
}
// * * * * * * * * * * * * * * * * * * * * * * * * * * * * * * * * * * * * * //

dimensions      [0 1 -1 0 0 0 0];

internalField   nonuniform List<vector> 
73728
(
(3 3.73274e-17 0)
(3 2.11776e-16 0)
(3 5.04734e-17 0)
(3 7.78982e-19 0)
(3 -3.03479e-16 0)
(3 -6.56353e-17 0)
(3 2.30072e-16 0)
(3 1.83729e-16 0)
(3 4.08719e-17 0)
(3 -1.27191e-16 0)
(3 8.66061e-17 0)
(3 2.04229e-17 0)
(3 -4.68382e-16 0)
(3 -5.38373e-16 0)
(3 -1.68694e-16 0)
(3 4.43755e-16 0)
(3 6.77181e-16 0)
(3 5.93051e-16 0)
(3 3.64639e-16 0)
(3 -6.38944e-17 0)
(3 -1.31666e-17 0)
(3 8.13685e-18 0)
(3 -1.98318e-16 0)
(3 -8.60346e-17 0)
(3 -1.47725e-17 0)
(3 -4.98214e-17 0)
(3 -3.42689e-16 0)
(3 -4.16727e-16 0)
(3 4.98537e-16 0)
(3 1.29154e-15 0)
(3 1.29661e-15 0)
(3 9.93986e-16 0)
(3 3.19171e-16 0)
(3 -5.25923e-16 0)
(3 -1.34418e-15 0)
(3 -1.27822e-15 0)
(3 -9.43603e-16 0)
(3 -1.02477e-15 0)
(3 -1.16244e-15 0)
(3 -1.22036e-15 0)
(3 -1.05626e-15 0)
(3 -4.9081e-16 0)
(3 3.34745e-17 0)
(3 5.18743e-16 0)
(3 -1.57563e-16 0)
(3 -3.03551e-16 0)
(3 -2.48221e-16 0)
(3 1.6045e-16 0)
(3 -7.70619e-17 0)
(3 1.2858e-16 0)
(3 5.19648e-16 0)
(3 2.94199e-16 0)
(3 8.75485e-16 0)
(3 5.70951e-16 0)
(3 5.65066e-16 0)
(3 7.27512e-16 0)
(3 3.88297e-16 0)
(3 -1.28465e-15 0)
(3 -1.13137e-15 0)
(3 -9.24637e-16 0)
(3 -1.72558e-16 0)
(3 -5.94358e-16 0)
(3 3.3742e-16 0)
(3 1.28316e-16 0)
(3 -4.42324e-17 0)
(3 1.3746e-16 0)
(3 7.84151e-16 0)
(3 6.6099e-16 0)
(3 8.34117e-17 0)
(3 -4.07461e-16 0)
(3 -7.81636e-16 0)
(3 -7.89191e-16 0)
(3 -1.75478e-16 0)
(3 1.19607e-15 0)
(3 2.21219e-15 0)
(3 2.31567e-15 0)
(3 2.32087e-15 0)
(3 1.04959e-15 0)
(3 -2.27851e-16 0)
(3 -1.03443e-15 0)
(3 -1.08269e-15 0)
(3 -1.17463e-15 0)
(3 -7.5203e-16 0)
(3 -3.32466e-16 0)
(3 3.05742e-17 0)
(3 4.11324e-16 0)
(3 -8.04676e-18 0)
(3 -2.89886e-16 0)
(3 -8.19442e-16 0)
(3 -1.37338e-15 0)
(3 -1.61284e-15 0)
(3 -9.11286e-16 0)
(3 -9.38692e-17 0)
(3 1.42404e-15 0)
(3 1.06693e-15 0)
(3 -2.86857e-16 0)
(3 6.12302e-18 0)
(3 5.92088e-16 0)
(3 3.29059e-16 0)
(3 8.672e-17 0)
(3 -2.61924e-16 0)
(3 -1.58137e-16 0)
(3 4.67071e-16 0)
(3 6.776e-16 0)
(3 -1.49468e-16 0)
(3 -3.07876e-16 0)
(3 -5.24863e-16 0)
(3 -3.74645e-16 0)
(3 -5.3664e-16 0)
(3 -5.87632e-16 0)
(3 -6.53637e-16 0)
(3 -6.52791e-18 0)
(3 2.62536e-16 0)
(3 -1.43439e-16 0)
(3 -3.22728e-16 0)
(3 -3.35779e-16 0)
(3 2.44098e-16 0)
(3 2.47971e-16 0)
(3 2.00554e-16 0)
(3 3.39569e-16 0)
(3 5.41657e-17 0)
(3 2.38388e-16 0)
(3 5.16727e-16 0)
(3 6.66676e-16 0)
(3 1.91054e-15 0)
(3 2.20906e-15 0)
(3 1.6156e-15 0)
(3 4.39584e-16 0)
(3 -5.6599e-16 0)
(3 -7.15281e-16 0)
(3 -8.76235e-16 0)
(3 -1.50506e-15 0)
(3 -1.96694e-15 0)
(3 -2.0003e-15 0)
(3 -1.96094e-15 0)
(3 -2.00053e-15 0)
(3 -1.33708e-15 0)
(3 -2.85712e-16 0)
(3 -1.65214e-16 0)
(3 1.39862e-16 0)
(3 -3.70227e-17 0)
(3 -3.04687e-16 0)
(3 -5.09195e-16 0)
(3 -3.18001e-16 0)
(3 -6.61315e-16 0)
(3 2.78616e-16 0)
(3 1.21281e-15 0)
(3 1.65811e-15 0)
(3 1.13917e-15 0)
(3 3.33399e-16 0)
(3 -8.20639e-17 0)
(3 -4.3568e-16 0)
(3 -1.10218e-15 0)
(3 -1.11026e-15 0)
(3 -6.77026e-16 0)
(3 -1.43103e-16 0)
(3 1.35836e-15 0)
(3 1.37963e-15 0)
(3 1.59747e-15 0)
(3 1.35829e-15 0)
(3 5.0111e-16 0)
(3 4.35045e-16 0)
(3 2.3065e-15 0)
(3 2.73503e-15 0)
(3 2.16953e-15 0)
(3 3.41947e-16 0)
(3 -1.14131e-15 0)
(3 -1.36522e-15 0)
(3 6.46501e-16 0)
(3 3.45085e-15 0)
(3 2.51673e-15 0)
(3 1.98879e-15 0)
(3 1.92823e-15 0)
(3 5.96962e-16 0)
(3 -1.7591e-15 0)
(3 -3.07788e-15 0)
(3 -2.55397e-15 0)
(3 -1.98448e-15 0)
(3 -1.22504e-15 0)
(3 -4.63326e-16 0)
(3 -2.70032e-16 0)
(3 -3.75365e-16 0)
(3 -7.9699e-16 0)
(3 -2.38812e-16 0)
(3 -1.05797e-15 0)
(3 -1.65183e-15 0)
(3 -1.67739e-15 0)
(3 -1.27943e-15 0)
(3 -6.81182e-16 0)
(3 6.84479e-16 0)
(3 1.44414e-15 0)
(3 4.19672e-16 0)
(3 -7.61173e-17 0)
(3 -1.22246e-16 0)
(3 -1.21616e-16 0)
(3 -4.99462e-16 0)
(3 -4.65685e-16 0)
(3 -2.73443e-16 0)
(3 1.92383e-17 0)
(3 1.56038e-16 0)
(3 -1.86874e-16 0)
(3 -3.44618e-16 0)
(3 -1.10803e-15 0)
(3 -9.93016e-16 0)
(3 -6.93151e-16 0)
(3 -4.72898e-16 0)
(3 -8.30127e-16 0)
(3 -7.35011e-16 0)
(3 3.26345e-16 0)
(3 3.85637e-16 0)
(3 6.25941e-16 0)
(3 1.27744e-15 0)
(3 3.50018e-16 0)
(3 -4.13652e-16 0)
(3 -1.21254e-16 0)
(3 2.52757e-18 0)
(3 6.317e-16 0)
(3 1.68522e-15 0)
(3 1.96325e-15 0)
(3 2.03025e-15 0)
(3 2.23421e-15 0)
(3 2.07321e-15 0)
(3 2.05883e-15 0)
(3 1.87161e-15 0)
(3 8.54546e-16 0)
(3 3.81924e-16 0)
(3 -5.97472e-16 0)
(3 -1.69475e-15 0)
(3 -3.66614e-15 0)
(3 -3.76268e-15 0)
(3 -3.42917e-15 0)
(3 -2.76872e-15 0)
(3 -2.21659e-15 0)
(3 -1.48891e-15 0)
(3 -4.21972e-16 0)
(3 3.19025e-17 0)
(3 -1.12777e-16 0)
(3 -1.89383e-16 0)
(3 -3.14892e-16 0)
(3 -1.62514e-16 0)
(3 -7.11742e-17 0)
(3 7.94657e-16 0)
(3 8.67775e-16 0)
(3 1.52295e-15 0)
(3 1.49765e-15 0)
(3 1.75567e-15 0)
(3 1.28308e-15 0)
(3 9.76415e-16 0)
(3 8.73173e-16 0)
(3 7.28059e-16 0)
(3 5.3605e-16 0)
(3 3.24445e-16 0)
(3 3.66282e-16 0)
(3 9.66226e-16 0)
(3 1.22905e-15 0)
(3 1.53599e-15 0)
(3 7.01448e-16 0)
(3 1.29014e-16 0)
(3 1.75557e-15 0)
(3 2.70084e-15 0)
(3 2.79141e-15 0)
(3 2.36727e-15 0)
(3 1.12231e-15 0)
(3 9.8645e-16 0)
(3 2.40411e-15 0)
(3 3.06e-15 0)
(3 1.77398e-15 0)
(3 -8.65416e-17 0)
(3 -3.26955e-16 0)
(3 -9.01882e-16 0)
(3 -1.75219e-15 0)
(3 -2.43783e-15 0)
(3 -2.3468e-15 0)
(3 -1.784e-15 0)
(3 -1.09775e-15 0)
(3 -3.52451e-16 0)
(3 1.61266e-16 0)
(3 -1.54575e-16 0)
(3 -4.40257e-16 0)
(3 -6.14099e-16 0)
(3 -1.93406e-15 0)
(3 -2.15333e-15 0)
(3 -9.36649e-16 0)
(3 -9.07771e-16 0)
(3 -5.72981e-16 0)
(3 8.18313e-17 0)
(3 9.38659e-16 0)
(3 5.61987e-16 0)
(3 -3.24606e-17 0)
(3 -3.95002e-16 0)
(3 -4.79193e-16 0)
(3 -4.27363e-16 0)
(3 -5.86314e-16 0)
(3 -7.46217e-16 0)
(3 -8.49917e-16 0)
(3 -7.27536e-16 0)
(3 -7.44658e-16 0)
(3 -8.96087e-16 0)
(3 -1.46932e-15 0)
(3 -1.89446e-15 0)
(3 -2.00175e-15 0)
(3 -1.66028e-15 0)
(3 -1.28037e-15 0)
(3 -9.31558e-16 0)
(3 -5.61126e-16 0)
(3 -5.4329e-16 0)
(3 -8.30426e-16 0)
(3 -9.50373e-16 0)
(3 -1.31004e-15 0)
(3 -1.24812e-15 0)
(3 -8.93398e-17 0)
(3 7.12226e-16 0)
(3 1.1417e-15 0)
(3 1.41813e-15 0)
(3 1.80926e-15 0)
(3 1.76537e-15 0)
(3 8.86765e-16 0)
(3 5.1479e-16 0)
(3 4.30385e-16 0)
(3 1.09782e-15 0)
(3 1.1487e-15 0)
(3 8.39578e-16 0)
(3 -7.72677e-16 0)
(3 -2.99727e-15 0)
(3 -4.21077e-15 0)
(3 -4.64419e-15 0)
(3 -3.50482e-15 0)
(3 -2.70358e-15 0)
(3 -2.64009e-15 0)
(3 -2.79076e-15 0)
(3 -1.36642e-15 0)
(3 -8.20885e-16 0)
(3 -5.7522e-16 0)
(3 2.13202e-16 0)
(3 2.03757e-17 0)
(3 -1.59993e-16 0)
(3 4.50043e-16 0)
(3 9.91514e-16 0)
(3 6.70245e-16 0)
(3 2.30738e-16 0)
(3 5.82041e-16 0)
(3 1.14082e-15 0)
(3 1.3258e-15 0)
(3 1.94309e-15 0)
(3 2.05467e-15 0)
(3 1.31116e-15 0)
(3 5.70053e-16 0)
(3 -3.31215e-16 0)
(3 -1.04229e-15 0)
(3 -1.10429e-16 0)
(3 2.25257e-16 0)
(3 -6.68716e-17 0)
(3 -3.03904e-16 0)
(3 -4.12084e-16 0)
(3 6.51813e-16 0)
(3 2.9647e-15 0)
(3 3.73411e-15 0)
(3 3.64792e-15 0)
(3 3.67712e-15 0)
(3 2.84038e-15 0)
(3 2.31604e-15 0)
(3 1.67493e-15 0)
(3 3.90837e-16 0)
(3 -2.56215e-16 0)
(3 -1.45564e-15 0)
(3 -1.7381e-15 0)
(3 -2.65463e-15 0)
(3 -2.47813e-15 0)
(3 -1.61458e-15 0)
(3 -1.41939e-15 0)
(3 -1.95812e-15 0)
(3 -2.43234e-15 0)
(3 -1.9062e-15 0)
(3 -1.12306e-15 0)
(3 -1.21977e-15 0)
(3 -1.81568e-15 0)
(3 -2.61149e-15 0)
(3 -1.59384e-15 0)
(3 -1.19577e-16 0)
(3 9.15434e-16 0)
(3 1.44892e-15 0)
(3 1.66227e-15 0)
(3 7.17945e-16 0)
(3 6.24577e-17 0)
(3 -6.0702e-17 0)
(3 -1.59717e-16 0)
(3 -3.04199e-16 0)
(3 -2.95537e-16 0)
(3 -4.61378e-16 0)
(3 -4.60245e-16 0)
(3 -6.70929e-16 0)
(3 -1.23072e-15 0)
(3 -9.33632e-16 0)
(3 -7.55313e-16 0)
(3 -1.13151e-15 0)
(3 -1.17891e-15 0)
(3 -1.32303e-15 0)
(3 -1.10866e-15 0)
(3 -4.0941e-16 0)
(3 3.8637e-17 0)
(3 -9.16462e-16 0)
(3 -1.91634e-15 0)
(3 -2.33056e-15 0)
(3 -1.93644e-15 0)
(3 -1.38097e-15 0)
(3 -3.02685e-16 0)
(3 5.40303e-17 0)
(3 4.36492e-16 0)
(3 4.25778e-16 0)
(3 4.63934e-16 0)
(3 9.82144e-16 0)
(3 1.38098e-15 0)
(3 5.78933e-16 0)
(3 -9.55349e-16 0)
(3 -1.42967e-15 0)
(3 -6.75114e-16 0)
(3 -1.36841e-17 0)
(3 -2.62586e-16 0)
(3 -1.13375e-15 0)
(3 -2.14892e-15 0)
(3 -1.43917e-15 0)
(3 -2.14902e-15 0)
(3 -2.28287e-15 0)
(3 -1.93199e-15 0)
(3 -1.74668e-15 0)
(3 -1.54958e-15 0)
(3 -1.86076e-15 0)
(3 -2.55058e-15 0)
(3 -2.25193e-15 0)
(3 -3.11142e-16 0)
(3 1.92624e-17 0)
(3 6.75895e-16 0)
(3 2.87486e-15 0)
(3 2.1919e-15 0)
(3 1.29683e-15 0)
(3 7.4293e-16 0)
(3 6.10145e-16 0)
(3 6.11913e-16 0)
(3 1.23327e-15 0)
(3 1.5251e-15 0)
(3 1.47199e-15 0)
(3 4.49557e-16 0)
(3 3.37138e-16 0)
(3 5.78777e-16 0)
(3 7.00801e-16 0)
(3 -6.64599e-16 0)
(3 -1.11192e-15 0)
(3 -2.08038e-15 0)
(3 -2.25567e-15 0)
(3 -1.66153e-15 0)
(3 -7.39527e-17 0)
(3 1.67506e-15 0)
(3 2.73586e-15 0)
(3 3.32865e-15 0)
(3 4.12261e-15 0)
(3 3.56961e-15 0)
(3 2.29651e-15 0)
(3 1.84068e-15 0)
(3 2.19188e-15 0)
(3 2.23504e-15 0)
(3 1.03578e-15 0)
(3 -4.16655e-16 0)
(3 -1.44338e-15 0)
(3 -1.89378e-15 0)
(3 -2.46966e-15 0)
(3 -1.94323e-15 0)
(3 -2.28441e-15 0)
(3 -3.04353e-15 0)
(3 -3.23171e-15 0)
(3 -2.58102e-15 0)
(3 -2.69135e-15 0)
(3 -3.20011e-15 0)
(3 -2.55737e-15 0)
(3 -1.20506e-16 0)
(3 1.48059e-16 0)
(3 5.36159e-16 0)
(3 1.09544e-15 0)
(3 1.68972e-15 0)
(3 8.7502e-16 0)
(3 9.89489e-16 0)
(3 2.71993e-17 0)
(3 5.17272e-17 0)
(3 1.0139e-16 0)
(3 -4.53421e-16 0)
(3 -4.01731e-16 0)
(3 1.125e-16 0)
(3 5.6676e-16 0)
(3 8.1853e-17 0)
(3 1.7885e-16 0)
(3 7.52152e-17 0)
(3 1.09342e-17 0)
(3 -1.88303e-16 0)
(3 -9.97076e-17 0)
(3 5.67117e-17 0)
(3 3.13352e-16 0)
(3 2.51129e-16 0)
(3 -2.64586e-16 0)
(3 -6.27331e-16 0)
(3 -1.30203e-15 0)
(3 -8.87661e-16 0)
(3 -1.37153e-17 0)
(3 -2.74145e-16 0)
(3 -3.46321e-16 0)
(3 6.55028e-17 0)
(3 -5.03826e-17 0)
(3 -1.53787e-16 0)
(3 2.84862e-16 0)
(3 7.65453e-16 0)
(3 9.73648e-16 0)
(3 9.50042e-16 0)
(3 5.12814e-16 0)
(3 -5.58692e-16 0)
(3 -1.0495e-15 0)
(3 -1.63133e-15 0)
(3 -1.35686e-15 0)
(3 -1.10269e-15 0)
(3 5.69039e-17 0)
(3 -9.05829e-16 0)
(3 -1.31751e-15 0)
(3 -1.37202e-15 0)
(3 -1.32342e-15 0)
(3 -1.31631e-15 0)
(3 -2.43058e-15 0)
(3 -2.9271e-15 0)
(3 -2.21795e-15 0)
(3 -6.52304e-16 0)
(3 1.67836e-15 0)
(3 4.25811e-15 0)
(3 4.72715e-15 0)
(3 4.11491e-15 0)
(3 2.26789e-15 0)
(3 9.34446e-16 0)
(3 2.16386e-16 0)
(3 -2.11666e-16 0)
(3 -2.88518e-16 0)
(3 -5.72326e-16 0)
(3 -7.09018e-16 0)
(3 1.66094e-16 0)
(3 3.62418e-16 0)
(3 1.09168e-15 0)
(3 1.11278e-15 0)
(3 3.63118e-16 0)
(3 -1.79419e-16 0)
(3 -4.67163e-16 0)
(3 -1.35319e-15 0)
(3 -1.03787e-15 0)
(3 -2.98274e-17 0)
(3 2.67419e-16 0)
(3 9.47472e-16 0)
(3 2.01564e-15 0)
(3 2.93251e-15 0)
(3 2.62999e-15 0)
(3 2.49508e-15 0)
(3 2.40913e-15 0)
(3 1.59818e-15 0)
(3 1.63022e-15 0)
(3 1.74519e-15 0)
(3 -5.09364e-16 0)
(3 -1.10853e-15 0)
(3 -1.45657e-15 0)
(3 -2.23205e-15 0)
(3 -2.76979e-15 0)
(3 -2.98926e-15 0)
(3 -2.32829e-15 0)
(3 -2.35152e-15 0)
(3 -2.38084e-15 0)
(3 -2.13182e-15 0)
(3 -2.82319e-15 0)
(3 -8.82933e-16 0)
(3 4.71953e-17 0)
(3 5.0146e-16 0)
(3 4.70001e-16 0)
(3 5.60542e-16 0)
(3 1.2324e-15 0)
(3 1.42026e-15 0)
(3 2.22221e-15 0)
(3 -1.3655e-17 0)
(3 9.74037e-17 0)
(3 -3.56179e-17 0)
(3 -1.44055e-16 0)
(3 4.64086e-17 0)
(3 2.23093e-16 0)
(3 1.05056e-15 0)
(3 1.55532e-15 0)
(3 1.03216e-15 0)
(3 6.80627e-16 0)
(3 7.38257e-17 0)
(3 5.74424e-17 0)
(3 5.70891e-17 0)
(3 2.93071e-16 0)
(3 1.90045e-16 0)
(3 -7.50764e-16 0)
(3 -8.809e-16 0)
(3 -3.41218e-16 0)
(3 -1.19293e-15 0)
(3 -1.95403e-15 0)
(3 -2.08237e-15 0)
(3 -1.05492e-15 0)
(3 -8.20249e-18 0)
(3 -3.77611e-17 0)
(3 -3.16933e-16 0)
(3 -2.06033e-16 0)
(3 2.91987e-16 0)
(3 2.21792e-16 0)
(3 6.99733e-16 0)
(3 7.45554e-16 0)
(3 4.23964e-16 0)
(3 -3.35924e-16 0)
(3 -1.5332e-15 0)
(3 -1.06821e-15 0)
(3 -4.09702e-16 0)
(3 2.55628e-16 0)
(3 2.80785e-16 0)
(3 -4.62109e-16 0)
(3 -6.94734e-16 0)
(3 -1.01616e-15 0)
(3 -6.56276e-16 0)
(3 -5.21932e-16 0)
(3 -1.59285e-15 0)
(3 -2.23947e-15 0)
(3 -1.20025e-15 0)
(3 -2.68405e-16 0)
(3 6.71639e-16 0)
(3 2.17619e-15 0)
(3 2.83163e-15 0)
(3 2.42548e-15 0)
(3 1.44435e-15 0)
(3 -6.9571e-17 0)
(3 -1.92649e-15 0)
(3 -1.99899e-15 0)
(3 -2.52524e-15 0)
(3 -3.27027e-15 0)
(3 -2.69867e-15 0)
(3 -8.52434e-16 0)
(3 1.6191e-16 0)
(3 8.30142e-16 0)
(3 1.04824e-15 0)
(3 1.10091e-15 0)
(3 5.30122e-16 0)
(3 4.06853e-16 0)
(3 4.59003e-16 0)
(3 -1.17901e-16 0)
(3 -5.2187e-16 0)
(3 -6.07996e-16 0)
(3 5.12734e-17 0)
(3 8.59185e-16 0)
(3 2.12068e-15 0)
(3 2.71756e-15 0)
(3 3.02607e-15 0)
(3 2.05847e-15 0)
(3 3.58364e-16 0)
(3 9.07592e-17 0)
(3 -4.52843e-16 0)
(3 -7.53044e-16 0)
(3 -1.8387e-15 0)
(3 -3.22634e-15 0)
(3 -3.46805e-15 0)
(3 -3.85213e-15 0)
(3 -3.97932e-15 0)
(3 -3.0816e-15 0)
(3 -2.33046e-15 0)
(3 -2.10643e-15 0)
(3 -1.5175e-15 0)
(3 -1.3818e-15 0)
(3 -1.6504e-15 0)
(3 -2.37726e-16 0)
(3 2.05343e-16 0)
(3 5.83661e-16 0)
(3 1.02144e-15 0)
(3 1.50659e-15 0)
(3 2.0717e-15 0)
(3 3.60066e-15 0)
(3 4.42622e-17 0)
(3 -1.74517e-16 0)
(3 -3.69501e-16 0)
(3 -1.46826e-16 0)
(3 1.81003e-16 0)
(3 8.3329e-16 0)
(3 6.20888e-16 0)
(3 9.11884e-16 0)
(3 1.02171e-15 0)
(3 7.45549e-16 0)
(3 3.90077e-16 0)
(3 1.81832e-16 0)
(3 1.62828e-16 0)
(3 -8.31927e-17 0)
(3 -5.44846e-16 0)
(3 -1.00285e-15 0)
(3 -9.02831e-16 0)
(3 -1.00555e-15 0)
(3 -7.33358e-16 0)
(3 -1.66293e-15 0)
(3 -1.56472e-15 0)
(3 -1.12743e-15 0)
(3 -9.44326e-16 0)
(3 -1.08111e-15 0)
(3 -6.2081e-16 0)
(3 2.39853e-16 0)
(3 9.05579e-16 0)
(3 4.26589e-16 0)
(3 6.07767e-20 0)
(3 -5.93426e-16 0)
(3 -6.85542e-16 0)
(3 -7.71775e-16 0)
(3 -7.03801e-16 0)
(3 -6.12233e-16 0)
(3 -1.04162e-15 0)
(3 -6.75748e-16 0)
(3 -2.80041e-16 0)
(3 -2.42313e-16 0)
(3 -1.19813e-15 0)
(3 -2.07383e-15 0)
(3 -2.23394e-15 0)
(3 -2.20931e-15 0)
(3 -1.37707e-15 0)
(3 -1.00975e-15 0)
(3 -7.63531e-16 0)
(3 -4.27932e-16 0)
(3 6.33282e-17 0)
(3 5.52102e-16 0)
(3 1.41706e-15 0)
(3 1.55879e-15 0)
(3 1.55835e-15 0)
(3 1.97817e-15 0)
(3 1.22464e-15 0)
(3 -5.82154e-16 0)
(3 -2.01957e-15 0)
(3 -2.16919e-15 0)
(3 -2.0686e-15 0)
(3 -2.2192e-15 0)
(3 -1.43384e-15 0)
(3 -1.25066e-16 0)
(3 3.58819e-16 0)
(3 5.38203e-16 0)
(3 3.01283e-16 0)
(3 8.57442e-17 0)
(3 -7.77689e-17 0)
(3 -4.56698e-16 0)
(3 -8.08483e-16 0)
(3 -1.27091e-15 0)
(3 -1.51111e-15 0)
(3 -3.19697e-16 0)
(3 6.24676e-16 0)
(3 1.23257e-15 0)
(3 8.73262e-16 0)
(3 1.05522e-16 0)
(3 -3.13602e-16 0)
(3 -1.13688e-15 0)
(3 -1.35584e-15 0)
(3 -1.26978e-15 0)
(3 -1.23703e-15 0)
(3 -1.28095e-15 0)
(3 -1.93008e-15 0)
(3 -2.8159e-15 0)
(3 -2.89732e-15 0)
(3 -2.71103e-15 0)
(3 -2.94357e-15 0)
(3 -2.59392e-15 0)
(3 -2.01255e-15 0)
(3 -1.55648e-15 0)
(3 -2.32584e-15 0)
(3 -1.37469e-15 0)
(3 -1.25242e-15 0)
(3 -9.25661e-16 0)
(3 -9.08974e-16 0)
(3 -3.06886e-16 0)
(3 1.84311e-15 0)
(3 4.16892e-15 0)
(3 -8.13561e-17 0)
(3 -9.45452e-17 0)
(3 -7.89242e-18 0)
(3 3.7401e-17 0)
(3 7.24151e-17 0)
(3 -1.67487e-17 0)
(3 -2.07056e-16 0)
(3 -8.55005e-17 0)
(3 1.65379e-16 0)
(3 1.85526e-16 0)
(3 8.83556e-16 0)
(3 6.80065e-16 0)
(3 6.10918e-16 0)
(3 3.44979e-17 0)
(3 -1.24293e-16 0)
(3 -4.49273e-17 0)
(3 6.01569e-17 0)
(3 -2.98913e-16 0)
(3 5.11091e-16 0)
(3 -3.53142e-17 0)
(3 9.78421e-17 0)
(3 2.9536e-16 0)
(3 -8.7819e-17 0)
(3 3.89197e-16 0)
(3 6.67331e-16 0)
(3 8.00481e-16 0)
(3 3.96798e-16 0)
(3 3.35147e-16 0)
(3 -1.88731e-16 0)
(3 -3.16719e-16 0)
(3 -2.94621e-16 0)
(3 -4.53756e-16 0)
(3 -6.07491e-16 0)
(3 -1.19294e-15 0)
(3 -1.71422e-15 0)
(3 -1.8925e-15 0)
(3 -2.09814e-15 0)
(3 -1.59781e-15 0)
(3 -1.6494e-15 0)
(3 -1.8886e-15 0)
(3 -2.03385e-15 0)
(3 -2.40438e-15 0)
(3 -1.92589e-15 0)
(3 -9.06817e-16 0)
(3 -7.21e-16 0)
(3 3.36515e-16 0)
(3 1.01991e-15 0)
(3 8.08952e-16 0)
(3 6.01998e-16 0)
(3 1.33401e-15 0)
(3 2.78801e-15 0)
(3 2.74666e-15 0)
(3 1.50472e-15 0)
(3 4.3961e-16 0)
(3 -5.96883e-16 0)
(3 -6.2731e-16 0)
(3 -2.76732e-16 0)
(3 -6.2179e-16 0)
(3 -1.25198e-15 0)
(3 -1.11997e-15 0)
(3 -8.95292e-16 0)
(3 -5.74723e-16 0)
(3 -1.90195e-16 0)
(3 -4.05e-16 0)
(3 -7.47454e-16 0)
(3 -1.04213e-15 0)
(3 -2.03671e-15 0)
(3 -2.33033e-15 0)
(3 -2.88484e-15 0)
(3 -3.00355e-15 0)
(3 -2.66874e-15 0)
(3 -1.74635e-15 0)
(3 -1.45618e-15 0)
(3 -1.72735e-15 0)
(3 -2.01322e-15 0)
(3 -2.15871e-15 0)
(3 -2.58925e-15 0)
(3 -2.6451e-15 0)
(3 -2.04643e-15 0)
(3 -1.2443e-15 0)
(3 -5.42543e-16 0)
(3 -1.40492e-15 0)
(3 -1.93435e-15 0)
(3 -1.88777e-15 0)
(3 -1.96656e-15 0)
(3 -2.0265e-15 0)
(3 -1.3623e-15 0)
(3 -3.66543e-16 0)
(3 -7.42443e-16 0)
(3 -2.06241e-15 0)
(3 -2.16699e-15 0)
(3 -2.66904e-15 0)
(3 -2.97529e-15 0)
(3 -2.01868e-15 0)
(3 5.00712e-16 0)
(3 6.58287e-16 0)
(3 -2.50746e-17 0)
(3 -8.30813e-17 0)
(3 -1.7362e-16 0)
(3 -2.11451e-16 0)
(3 -2.09935e-16 0)
(3 -4.38551e-16 0)
(3 -5.88822e-16 0)
(3 6.93524e-18 0)
(3 2.66375e-17 0)
(3 1.20951e-16 0)
(3 2.80826e-16 0)
(3 5.62081e-16 0)
(3 -1.48436e-16 0)
(3 -2.57832e-16 0)
(3 -7.31273e-16 0)
(3 -1.98086e-16 0)
(3 8.69821e-16 0)
(3 6.01865e-16 0)
(3 3.33738e-16 0)
(3 5.93721e-16 0)
(3 7.64242e-16 0)
(3 9.3938e-16 0)
(3 1.13633e-15 0)
(3 1.04454e-15 0)
(3 1.04516e-15 0)
(3 4.25264e-17 0)
(3 -1.61925e-17 0)
(3 3.134e-16 0)
(3 3.66015e-16 0)
(3 -1.76475e-16 0)
(3 -6.01628e-16 0)
(3 -8.37726e-16 0)
(3 -1.66892e-15 0)
(3 -1.67952e-15 0)
(3 -1.84343e-15 0)
(3 -2.7626e-15 0)
(3 -2.54313e-15 0)
(3 -1.83549e-15 0)
(3 -8.71503e-16 0)
(3 -4.35333e-16 0)
(3 -6.81898e-16 0)
(3 -1.24546e-15 0)
(3 -9.97108e-16 0)
(3 1.71931e-16 0)
(3 9.3875e-16 0)
(3 2.37463e-15 0)
(3 2.5965e-15 0)
(3 2.41201e-15 0)
(3 1.64447e-15 0)
(3 8.66539e-16 0)
(3 1.00839e-15 0)
(3 9.70784e-16 0)
(3 5.88608e-16 0)
(3 1.02134e-15 0)
(3 2.1955e-16 0)
(3 -5.2498e-16 0)
(3 -1.84108e-16 0)
(3 -1.50624e-16 0)
(3 -5.97252e-16 0)
(3 -1.2354e-15 0)
(3 -1.51057e-15 0)
(3 -1.74382e-15 0)
(3 -1.79512e-15 0)
(3 -1.84983e-15 0)
(3 -1.46683e-15 0)
(3 -1.72496e-15 0)
(3 -2.45274e-15 0)
(3 -3.33374e-15 0)
(3 -2.91557e-15 0)
(3 -3.03507e-15 0)
(3 -2.86164e-15 0)
(3 -2.34915e-15 0)
(3 -1.52426e-15 0)
(3 -1.49851e-15 0)
(3 -2.06958e-15 0)
(3 -2.52626e-15 0)
(3 -2.5876e-15 0)
(3 -3.04882e-15 0)
(3 -2.70509e-15 0)
(3 -1.95111e-15 0)
(3 -1.29013e-15 0)
(3 -7.33958e-16 0)
(3 -4.62696e-16 0)
(3 -3.17064e-16 0)
(3 -3.43892e-16 0)
(3 -6.0217e-16 0)
(3 -1.18773e-16 0)
(3 6.2856e-16 0)
(3 7.96484e-16 0)
(3 -8.90616e-16 0)
(3 -3.12768e-15 0)
(3 -3.49626e-15 0)
(3 -2.75962e-15 0)
(3 -7.22029e-16 0)
(3 -1.26598e-15 0)
(3 -1.10576e-15 0)
(3 7.83196e-17 0)
(3 5.31511e-17 0)
(3 3.07034e-16 0)
(3 3.46574e-16 0)
(3 3.22074e-17 0)
(3 -2.62867e-16 0)
(3 -2.72014e-16 0)
(3 1.70068e-16 0)
(3 -3.7861e-17 0)
(3 1.49301e-17 0)
(3 -2.76714e-16 0)
(3 -3.32965e-16 0)
(3 -2.82415e-16 0)
(3 -4.35958e-16 0)
(3 -5.21906e-16 0)
(3 -1.25773e-16 0)
(3 6.06422e-16 0)
(3 6.69781e-16 0)
(3 -2.83746e-16 0)
(3 -3.56024e-16 0)
(3 -6.82614e-17 0)
(3 1.84909e-16 0)
(3 6.60641e-16 0)
(3 8.95944e-16 0)
(3 8.94255e-16 0)
(3 9.60628e-16 0)
(3 8.73172e-16 0)
(3 1.11953e-15 0)
(3 8.25042e-16 0)
(3 5.26613e-16 0)
(3 6.89229e-16 0)
(3 5.69398e-16 0)
(3 -6.97105e-17 0)
(3 -1.13293e-15 0)
(3 -1.88881e-15 0)
(3 -1.92098e-15 0)
(3 -1.52853e-15 0)
(3 -1.2059e-15 0)
(3 -1.0854e-15 0)
(3 -8.91582e-16 0)
(3 -5.5674e-16 0)
(3 -4.84248e-16 0)
(3 -4.54281e-16 0)
(3 6.10305e-16 0)
(3 1.2879e-15 0)
(3 1.74592e-15 0)
(3 2.20846e-15 0)
(3 2.11244e-15 0)
(3 2.10248e-15 0)
(3 1.6627e-15 0)
(3 1.12642e-15 0)
(3 1.23328e-15 0)
(3 1.30246e-15 0)
(3 1.34221e-15 0)
(3 4.18582e-16 0)
(3 -3.47508e-16 0)
(3 -1.38046e-15 0)
(3 -1.31898e-15 0)
(3 -1.02714e-15 0)
(3 -1.44886e-15 0)
(3 -1.44749e-15 0)
(3 -1.8663e-15 0)
(3 -2.08635e-15 0)
(3 -2.37675e-15 0)
(3 -2.26566e-15 0)
(3 -1.34912e-15 0)
(3 -1.41674e-15 0)
(3 -1.89864e-15 0)
(3 -2.26539e-15 0)
(3 -2.17584e-15 0)
(3 -2.46233e-15 0)
(3 -2.06309e-15 0)
(3 -1.6092e-15 0)
(3 -1.54616e-15 0)
(3 -1.71148e-15 0)
(3 -1.6461e-15 0)
(3 -1.44882e-15 0)
(3 -1.6821e-15 0)
(3 -1.53978e-15 0)
(3 -1.10855e-15 0)
(3 -9.23679e-16 0)
(3 -6.16334e-16 0)
(3 -6.45797e-18 0)
(3 -3.06159e-16 0)
(3 3.14777e-16 0)
(3 1.23717e-15 0)
(3 1.28991e-15 0)
(3 7.01107e-16 0)
(3 -1.1145e-16 0)
(3 -1.11419e-15 0)
(3 -2.92152e-15 0)
(3 -3.29527e-15 0)
(3 -1.95601e-15 0)
(3 -1.27892e-15 0)
(3 -1.60227e-15 0)
(3 -1.80259e-15 0)
(3 -8.97713e-17 0)
(3 1.45189e-17 0)
(3 4.17552e-16 0)
(3 3.77967e-16 0)
(3 -1.85938e-16 0)
(3 -6.70802e-16 0)
(3 -6.38099e-16 0)
(3 -9.92018e-16 0)
(3 -7.51831e-16 0)
(3 -4.98158e-16 0)
(3 1.79161e-18 0)
(3 -1.18559e-16 0)
(3 -1.78126e-16 0)
(3 -2.55796e-16 0)
(3 5.319e-16 0)
(3 8.34633e-16 0)
(3 1.25524e-16 0)
(3 -5.37348e-16 0)
(3 -4.15588e-16 0)
(3 -1.39966e-16 0)
(3 2.83879e-16 0)
(3 6.3322e-16 0)
(3 6.42331e-16 0)
(3 9.8094e-16 0)
(3 9.67904e-16 0)
(3 9.44696e-16 0)
(3 6.65313e-16 0)
(3 7.99641e-16 0)
(3 5.84612e-16 0)
(3 9.14591e-16 0)
(3 9.93966e-16 0)
(3 8.35438e-16 0)
(3 -7.23821e-16 0)
(3 -1.1388e-15 0)
(3 -1.1569e-15 0)
(3 -1.50151e-16 0)
(3 -4.73455e-16 0)
(3 -4.35054e-16 0)
(3 -8.06674e-16 0)
(3 -1.28557e-15 0)
(3 -1.01383e-15 0)
(3 -3.44558e-16 0)
(3 2.30098e-16 0)
(3 1.19656e-15 0)
(3 1.58759e-15 0)
(3 1.68775e-15 0)
(3 1.60847e-15 0)
(3 7.35313e-16 0)
(3 9.48672e-16 0)
(3 9.87018e-16 0)
(3 1.60908e-15 0)
(3 1.57404e-15 0)
(3 1.58123e-15 0)
(3 1.10914e-15 0)
(3 1.33182e-15 0)
(3 9.41595e-16 0)
(3 -2.1945e-15 0)
(3 -2.77722e-15 0)
(3 -2.54817e-15 0)
(3 -2.10203e-15 0)
(3 -1.77433e-15 0)
(3 -1.55201e-15 0)
(3 -1.90916e-15 0)
(3 -2.20983e-15 0)
(3 -2.64775e-15 0)
(3 -2.41078e-15 0)
(3 -1.26786e-15 0)
(3 -1.0804e-15 0)
(3 -1.95285e-15 0)
(3 -1.9551e-15 0)
(3 -1.89471e-15 0)
(3 -2.01748e-15 0)
(3 -2.03659e-15 0)
(3 -1.98876e-15 0)
(3 -1.51314e-15 0)
(3 -4.84297e-16 0)
(3 -1.66664e-16 0)
(3 -6.29635e-16 0)
(3 -1.35467e-15 0)
(3 -1.18344e-15 0)
(3 -7.09678e-16 0)
(3 -3.61922e-16 0)
(3 -7.77421e-17 0)
(3 2.3428e-16 0)
(3 1.37744e-15 0)
(3 1.90852e-15 0)
(3 2.07613e-15 0)
(3 9.43318e-16 0)
(3 -8.14509e-16 0)
(3 -1.2486e-15 0)
(3 -1.67703e-15 0)
(3 -1.67714e-15 0)
(3 -1.05275e-15 0)
(3 -8.54313e-16 0)
(3 -7.98299e-16 0)
(3 -1.32724e-15 0)
(3 2.83946e-17 0)
(3 -1.26567e-17 0)
(3 -1.40775e-16 0)
(3 -2.97526e-16 0)
(3 -1.89023e-16 0)
(3 -1.91875e-16 0)
(3 -4.03918e-16 0)
(3 -7.55553e-16 0)
(3 -3.31535e-16 0)
(3 -3.04392e-17 0)
(3 3.91606e-16 0)
(3 2.8478e-16 0)
(3 -4.30413e-16 0)
(3 -6.32059e-16 0)
(3 -6.20285e-16 0)
(3 -7.64794e-16 0)
(3 -6.6584e-16 0)
(3 -4.68736e-16 0)
(3 7.21608e-16 0)
(3 1.5182e-15 0)
(3 1.83984e-15 0)
(3 2.1784e-15 0)
(3 1.8296e-15 0)
(3 1.43513e-15 0)
(3 8.87988e-16 0)
(3 3.50702e-16 0)
(3 -1.63441e-16 0)
(3 -6.49576e-16 0)
(3 -7.13055e-16 0)
(3 -1.29234e-16 0)
(3 -5.55092e-16 0)
(3 -1.02183e-15 0)
(3 -1.19657e-15 0)
(3 -8.73571e-16 0)
(3 2.43479e-16 0)
(3 5.54088e-16 0)
(3 1.7361e-16 0)
(3 -6.01527e-16 0)
(3 -6.01911e-16 0)
(3 -1.01262e-16 0)
(3 4.16433e-16 0)
(3 1.02006e-15 0)
(3 1.99585e-15 0)
(3 2.20771e-15 0)
(3 2.32142e-15 0)
(3 2.24125e-15 0)
(3 1.63415e-15 0)
(3 4.20084e-16 0)
(3 -1.78448e-16 0)
(3 -4.61777e-16 0)
(3 -2.74745e-16 0)
(3 -4.9906e-16 0)
(3 -4.90427e-16 0)
(3 -5.29042e-16 0)
(3 -2.26782e-16 0)
(3 -2.59395e-16 0)
(3 -8.77761e-16 0)
(3 -1.69581e-15 0)
(3 -1.79151e-15 0)
(3 -2.13004e-15 0)
(3 -2.02113e-15 0)
(3 -1.60427e-15 0)
(3 -1.96457e-15 0)
(3 -2.13532e-15 0)
(3 -2.20738e-15 0)
(3 -2.32504e-15 0)
(3 -1.91526e-15 0)
(3 -1.42351e-15 0)
(3 -1.57905e-15 0)
(3 -1.40022e-15 0)
(3 -1.36913e-15 0)
(3 -1.81499e-15 0)
(3 -1.93487e-15 0)
(3 -1.35051e-15 0)
(3 -5.71421e-16 0)
(3 -5.40979e-17 0)
(3 7.77583e-16 0)
(3 4.66381e-16 0)
(3 -3.42449e-16 0)
(3 -5.91611e-16 0)
(3 -5.18279e-16 0)
(3 -2.2071e-16 0)
(3 1.65628e-16 0)
(3 1.0497e-15 0)
(3 9.83519e-16 0)
(3 1.35793e-15 0)
(3 5.95556e-16 0)
(3 1.16399e-17 0)
(3 -1.04603e-15 0)
(3 -1.42227e-15 0)
(3 -1.32649e-15 0)
(3 -8.52237e-16 0)
(3 -1.02407e-15 0)
(3 -7.05007e-16 0)
(3 -2.70276e-16 0)
(3 -4.16575e-17 0)
(3 -2.13823e-17 0)
(3 -1.18244e-16 0)
(3 -2.92879e-16 0)
(3 2.80517e-16 0)
(3 3.72829e-16 0)
(3 -8.98477e-17 0)
(3 -8.30369e-16 0)
(3 -7.99936e-16 0)
(3 -2.51293e-16 0)
(3 3.45353e-16 0)
(3 7.2918e-16 0)
(3 5.97273e-16 0)
(3 3.78256e-16 0)
(3 -3.19806e-16 0)
(3 -1.25221e-15 0)
(3 -2.2558e-15 0)
(3 -8.84237e-16 0)
(3 6.64359e-16 0)
(3 1.68691e-15 0)
(3 1.26196e-15 0)
(3 1.29961e-15 0)
(3 2.00761e-15 0)
(3 2.6004e-15 0)
(3 2.47776e-15 0)
(3 2.3178e-15 0)
(3 1.65293e-15 0)
(3 -2.83559e-16 0)
(3 -1.43073e-15 0)
(3 -1.38125e-15 0)
(3 -1.13758e-15 0)
(3 -1.08498e-15 0)
(3 -1.27862e-15 0)
(3 -1.21373e-15 0)
(3 -1.03882e-15 0)
(3 -8.60311e-16 0)
(3 -7.77312e-16 0)
(3 -1.06278e-15 0)
(3 -1.60958e-15 0)
(3 6.78276e-16 0)
(3 2.98921e-15 0)
(3 3.0984e-15 0)
(3 2.90656e-15 0)
(3 2.17247e-15 0)
(3 1.57783e-15 0)
(3 8.60095e-16 0)
(3 5.72398e-16 0)
(3 1.77319e-16 0)
(3 4.90229e-16 0)
(3 2.65903e-16 0)
(3 2.63741e-18 0)
(3 -6.76903e-16 0)
(3 -1.46241e-15 0)
(3 -1.90609e-15 0)
(3 -2.00853e-15 0)
(3 -1.51278e-15 0)
(3 -4.94725e-16 0)
(3 6.25297e-16 0)
(3 -9.91492e-17 0)
(3 -5.20456e-16 0)
(3 -4.64792e-16 0)
(3 -7.83741e-17 0)
(3 -1.71022e-16 0)
(3 -4.1812e-16 0)
(3 -4.41867e-16 0)
(3 -5.36452e-16 0)
(3 -3.59304e-16 0)
(3 -9.36662e-16 0)
(3 -4.06555e-16 0)
(3 -2.09113e-17 0)
(3 -3.30446e-16 0)
(3 -6.88056e-16 0)
(3 -9.06799e-16 0)
(3 -9.41018e-16 0)
(3 -7.59153e-16 0)
(3 -5.89164e-16 0)
(3 -1.18688e-16 0)
(3 -1.90269e-16 0)
(3 -2.13463e-16 0)
(3 3.97787e-17 0)
(3 4.96152e-16 0)
(3 3.3087e-16 0)
(3 5.25958e-16 0)
(3 7.41073e-16 0)
(3 6.9689e-16 0)
(3 7.49628e-16 0)
(3 2.6914e-16 0)
(3 -1.31231e-17 0)
(3 -2.47417e-17 0)
(3 2.40711e-16 0)
(3 1.78783e-16 0)
(3 3.53859e-16 0)
(3 3.1248e-16 0)
(3 -6.76774e-16 0)
(3 -8.86607e-16 0)
(3 -1.62508e-15 0)
(3 -2.92382e-15 0)
(3 5.09838e-17 0)
(3 -1.65586e-16 0)
(3 1.62741e-17 0)
(3 5.46424e-16 0)
(3 8.75679e-16 0)
(3 6.95234e-16 0)
(3 -5.55291e-17 0)
(3 -5.05296e-16 0)
(3 -5.14145e-16 0)
(3 -3.95278e-16 0)
(3 8.58616e-17 0)
(3 8.87799e-16 0)
(3 1.58644e-15 0)
(3 1.54174e-15 0)
(3 6.05583e-16 0)
(3 -9.29876e-16 0)
(3 -7.7964e-16 0)
(3 -5.9497e-16 0)
(3 -2.71013e-16 0)
(3 5.48062e-16 0)
(3 1.54299e-15 0)
(3 1.73537e-15 0)
(3 1.64754e-15 0)
(3 1.52957e-15 0)
(3 1.19622e-15 0)
(3 1.23818e-15 0)
(3 -1.5743e-17 0)
(3 -1.6018e-15 0)
(3 -1.50852e-15 0)
(3 -1.26556e-15 0)
(3 -1.26058e-15 0)
(3 -7.82059e-16 0)
(3 -4.84142e-16 0)
(3 -1.01755e-15 0)
(3 -1.51987e-15 0)
(3 -1.18651e-15 0)
(3 -1.36993e-15 0)
(3 -6.81673e-16 0)
(3 1.6045e-15 0)
(3 2.82501e-15 0)
(3 3.527e-15 0)
(3 3.5948e-15 0)
(3 2.40705e-15 0)
(3 2.01698e-15 0)
(3 1.65598e-15 0)
(3 5.32819e-16 0)
(3 3.73215e-16 0)
(3 2.65783e-16 0)
(3 -1.85173e-16 0)
(3 -1.03189e-16 0)
(3 -5.40569e-16 0)
(3 -5.94021e-16 0)
(3 -7.725e-16 0)
(3 -5.46905e-16 0)
(3 -1.01062e-16 0)
(3 5.87642e-16 0)
(3 7.65347e-16 0)
(3 3.48306e-16 0)
(3 -3.62088e-16 0)
(3 -2.03546e-16 0)
(3 -5.3344e-17 0)
(3 -2.67539e-16 0)
(3 -5.03435e-17 0)
(3 3.83861e-16 0)
(3 5.77173e-16 0)
(3 7.55531e-16 0)
(3 9.06763e-16 0)
(3 1.28598e-15 0)
(3 1.84723e-15 0)
(3 1.53255e-15 0)
(3 1.26485e-15 0)
(3 1.08013e-16 0)
(3 -1.1579e-15 0)
(3 -1.28383e-15 0)
(3 -1.48307e-15 0)
(3 -1.3285e-15 0)
(3 -1.8976e-15 0)
(3 -9.6747e-16 0)
(3 2.83653e-16 0)
(3 1.11637e-16 0)
(3 -2.04792e-16 0)
(3 -2.58173e-16 0)
(3 1.26726e-16 0)
(3 1.99391e-16 0)
(3 3.99789e-16 0)
(3 2.78708e-16 0)
(3 6.18518e-16 0)
(3 9.3711e-16 0)
(3 1.16399e-15 0)
(3 1.2587e-15 0)
(3 1.10322e-15 0)
(3 7.08732e-16 0)
(3 -5.52563e-16 0)
(3 -1.05077e-15 0)
(3 -3.18265e-15 0)
(3 -4.93663e-15 0)
(3 1.99718e-16 0)
(3 4.54311e-16 0)
(3 7.00803e-16 0)
(3 4.65589e-16 0)
(3 6.70807e-16 0)
(3 1.54623e-15 0)
(3 1.63958e-15 0)
(3 1.66728e-15 0)
(3 2.46488e-16 0)
(3 -1.59738e-17 0)
(3 -6.38206e-17 0)
(3 4.1599e-16 0)
(3 1.44649e-15 0)
(3 2.03691e-15 0)
(3 1.62663e-15 0)
(3 9.1491e-16 0)
(3 -2.21867e-17 0)
(3 -2.9492e-16 0)
(3 -2.11227e-16 0)
(3 5.05513e-16 0)
(3 9.92724e-16 0)
(3 7.61469e-16 0)
(3 3.59473e-16 0)
(3 -4.23039e-16 0)
(3 -7.47027e-16 0)
(3 -1.43924e-16 0)
(3 -4.96172e-16 0)
(3 -5.67312e-16 0)
(3 -9.47051e-16 0)
(3 -9.33882e-16 0)
(3 -7.61078e-16 0)
(3 -5.0923e-16 0)
(3 -2.41674e-16 0)
(3 -8.22438e-16 0)
(3 -9.36245e-16 0)
(3 5.44745e-16 0)
(3 6.41606e-16 0)
(3 9.67213e-16 0)
(3 1.47313e-15 0)
(3 1.38704e-15 0)
(3 2.43018e-15 0)
(3 3.81417e-15 0)
(3 3.77414e-15 0)
(3 3.39305e-15 0)
(3 3.0922e-15 0)
(3 2.24853e-15 0)
(3 1.93994e-15 0)
(3 7.7531e-16 0)
(3 3.73785e-16 0)
(3 -1.67087e-16 0)
(3 -1.23349e-16 0)
(3 2.85204e-16 0)
(3 4.45575e-16 0)
(3 4.96271e-17 0)
(3 -2.96012e-16 0)
(3 -4.75798e-16 0)
(3 -9.76914e-16 0)
(3 -8.67021e-16 0)
(3 -5.3234e-16 0)
(3 -1.21196e-16 0)
(3 -3.2334e-16 0)
(3 -6.64388e-17 0)
(3 6.86507e-16 0)
(3 9.65442e-16 0)
(3 1.71569e-15 0)
(3 1.83817e-15 0)
(3 2.24271e-15 0)
(3 2.54102e-15 0)
(3 2.78036e-15 0)
(3 1.81659e-15 0)
(3 3.75455e-16 0)
(3 4.93856e-16 0)
(3 1.51341e-16 0)
(3 -1.63893e-16 0)
(3 -5.37147e-16 0)
(3 -6.88718e-16 0)
(3 -7.07134e-16 0)
(3 3.13305e-16 0)
(3 6.30075e-16 0)
(3 4.62595e-16 0)
(3 -4.37373e-16 0)
(3 -7.90274e-16 0)
(3 -1.33406e-16 0)
(3 4.31935e-16 0)
(3 7.51093e-16 0)
(3 8.19897e-16 0)
(3 1.09634e-15 0)
(3 1.0004e-15 0)
(3 -9.92168e-17 0)
(3 9.30276e-17 0)
(3 2.25874e-16 0)
(3 1.59859e-16 0)
(3 -9.09849e-16 0)
(3 -2.43397e-15 0)
(3 -4.1013e-15 0)
(3 -4.22965e-15 0)
(3 2.18574e-17 0)
(3 -6.86836e-17 0)
(3 -1.04027e-16 0)
(3 -2.35479e-16 0)
(3 -2.56409e-16 0)
(3 1.06972e-18 0)
(3 5.38332e-16 0)
(3 1.4814e-15 0)
(3 9.4185e-16 0)
(3 5.63594e-16 0)
(3 4.728e-16 0)
(3 3.83316e-16 0)
(3 5.50631e-16 0)
(3 5.11793e-16 0)
(3 6.18548e-16 0)
(3 8.70572e-16 0)
(3 7.03484e-16 0)
(3 6.66745e-16 0)
(3 6.21498e-18 0)
(3 -5.39543e-16 0)
(3 -4.46346e-16 0)
(3 1.39324e-16 0)
(3 -1.17173e-16 0)
(3 -9.13838e-16 0)
(3 -9.465e-16 0)
(3 -6.53653e-16 0)
(3 -1.10462e-16 0)
(3 2.13676e-16 0)
(3 -1.30149e-17 0)
(3 -1.42665e-16 0)
(3 -9.46891e-17 0)
(3 -3.45816e-16 0)
(3 -5.15854e-16 0)
(3 -7.85337e-17 0)
(3 5.66882e-16 0)
(3 1.50802e-15 0)
(3 1.66017e-15 0)
(3 1.43212e-15 0)
(3 5.23099e-16 0)
(3 4.08087e-16 0)
(3 6.86311e-16 0)
(3 1.86267e-15 0)
(3 2.89168e-15 0)
(3 3.22907e-15 0)
(3 2.47963e-15 0)
(3 2.0784e-15 0)
(3 1.18985e-15 0)
(3 9.86058e-17 0)
(3 -1.05107e-16 0)
(3 -1.4755e-16 0)
(3 1.37849e-16 0)
(3 4.59184e-16 0)