/*--------------------------------*- C++ -*----------------------------------*\
  =========                 |
  \\      /  F ield         | OpenFOAM: The Open Source CFD Toolbox
   \\    /   O peration     | Website:  https://openfoam.org
    \\  /    A nd           | Version:  7
     \\/     M anipulation  |
\*---------------------------------------------------------------------------*/
FoamFile
{
    version     2.0;
    format      ascii;
    class       volScalarField;
    location    "2.4";
    object      p;
}
// * * * * * * * * * * * * * * * * * * * * * * * * * * * * * * * * * * * * * //

dimensions      [1 -1 -2 0 0 0 0];

internalField   nonuniform List<scalar> 
18432
(
1
1
1
1
1
1
1
1
1
1
1
1
1
1
1
1
1
1
1
1
1
1
1
1
1
1
1
1
1
1
1
1
1
1
1
1
1
1
1
1
1
1
1
1
1
1
1
1
1
1
1
1
1
1
1
1
1
1
1
1
1
1
1
1
1
1
1
1
1
1
1
1
1
1
1
1
1
1
1
1
1
1
1
1
1
1
1
1
1
1
1
1
1
1
1
1
1
1
1
1
1
1
1
1
1
1
1
1
1
1
1
1
1
1
1
1
1
1
1
1
1
1
1
1
1
1
1
1
1
1
1
1
1
1
1
1
1
1
1
1
1
1
1
1
1
1
1
1
1
1
1
1
1
1
1
1
1
1
1
1
1
1
1
1
1
1
1
1
1
1
1
1
1
1
1
1
1
1
1
1
1
1
1
1
1
1
1
1
1
1
1
1
1
1
1
1
1
1
1
1
1
1
1
1
1
1
1
1
1
1
1
1
1
1
1
1
1
1
1
1
1
1
1
1
1
1
1
1
1
1
1
1
1
1
1
1
1
1
1
1
1
1
1
1
1
1
1
1
1
1
1
1
1
1
1
1
1
1
1
1
1
1
1
1
1
1
1
1
1
1
1
1
1
1
1
1
1
1
1
1
1
1
1
1
1
1
1
1
1
1
1
1
1
1
1
1
1
1
1
1
1
1
1
1
1
1
1
1
1
1
1
1
1
1
1
1
1
1
1
1
1
1
1
1
1
1
1
1
1
1
1
1
1
1
1
1
1
1
1
1
1
1
1
1
1
1
1
1
1
1
1
1
1
1
1
1
1
1
1
1
1
1
1
1
1
1
1
1
1
1
1
1
1
1
1
1
1
1
1
1
1
1
1
1
1
1
1
1
1
1
1
1
1
1
1
1
1
1
1
1
1
1
1
1
1
1
1
1
1
1
1
1
1
1
1
1
1
1
1
1
1
1
1
1
1
1
1
1
1
1
1
1
1
1
1
1
1
1
1
1
1
1
1
1
1
1
1
1
1
1
1
1
1
1
1
1
1
1
1
1
1
1
1
1
1
1
1
1
1
1
1
1
1
1
1
1
1
1
1
1
1
1
1
1
1
1
1
1
1
1
1
1
1
1
1
1
1
1
1
1
1
1
1
1
1
1
1
1
1
1
1
1
1
1
1
1
1
1
1
1
1
1
1
1
1
1
1
1
1
1
1
1
1
1
1
1
1
1
1
1
1
1
1
1
1
1
1
1
1
1
1
1
1
1
1
1
1
1
1
1
1
1
1
1
1
1
1
1
1
1
1
1
1
1
1
1
1
1
1
1
1
1
1
1
1
1
1
1
1
1
1
1
1
1
1
1
1
1
1
1
1
1
1
1
1
1
1
1
1
1
1
1
1
1
1
1
1
1
1
1
1
1
1
1
1
1
1
1
1
1
1
1
1
1
1
1
1
1
1
1
1
1
1
1
1
1
1
1
1
1
1
1
1
1
1
1
1
1
1
1
1
1
1
1
1
1
1
1
1
1
1
1
1
1
1
1
1
1
1
1
1
1
1
1
1
1
1
1
1
1
1
1
1
1
1
1
1
1
1
1
1
1
1
1
1
1
1
1
1
1
1
1
1
1
1
1
1
1
1
1
1
1
1
1
1
1
1
1
1
1
1
1
1
1
1
1
1
1
1
1
1
1
1
1
1
1
1
1
1
1
1
1
1
1
1
1
1
1
1
1
1
1
1
1
1
1
1
1
1
1
1
1
1
1
1
1
1
1
1
1
1
1
1
1
1
1
1
1
1
1
1
1
1
1
1
1
1
1
1
1
1
1
1
1
1
1
1
1
1
1
1
1
1
1
1
1
1
1
1
1
1
1
1
1
1
1
1
1
1
1
1
1
1
1
1
1
1
1
1
1
1
1
1
1
1
1
1
1
1
1
1
1
1
1
1
1
1
1
1
1
1
1
1
1
1
1
1
1
1
1
1
1
1
1
1
1
1
1
1
1
1
1
1
1
1
1
1
1
1
1
1
1
1
1
1
1
1
1
1
1
1
1
1
1
1
1
1
1
1
1
1
1
1
1
1
1
1
1
1
1
1
1
1
1
1
1
1
1
1
1
1
1
1
1
1
1
1
1
1
1
1
1
1
1
1
1
1
1
1
1
1
1
1
1
1
1
1
1
1
1
1
1
1
1
1
1
1
1
1
1
1
1
1
1
1
1
1
1
1
1
1
1
1
1
1
1
1
1
1
1
1
1
1
1
1
1
1
1
1
1
1
1
1
1
1
1
1
1
1
1
1
1
1
1
1
1
1
1
1
1
1
1
1
1
1
1
1
1
1
1
1
1
1
1
1
1
1
1
1
1
1
1
1
1
1
1
1
1
1
1
1
1
1
1
1
1
1
1
1
1
1
1
1
1
1
1
1
1
1
1
1
1
1
1
1
1
1
1
1
1
1
1
1
1
1
1
1
1
1
1
1
1
1
1
1
1
1
1
1
1
1
1
1
1
1
1
1
1
1
1
1
1
1
1
1
1
1
1
1
1
1
1
1
1
1
1
1
1
1
1
1
1
1
1
1
1
1
1
1
1
1
1
1
1
1
1
1
1
1
1
1
1
1
1
1
1
1
1
1
1
1
1
1
1
1
1
1
1
1
1
1
1
1
1
1
1
1
1
1
1
1
1
1
1
1
1
1
1
1
1
1
1
1
1
1
1
1
1
1
1
1
1
1
1
1
1
1
1
1
1
1
1
1
1
1
1
1
1
1
1
1
1
1
1
1
1
1
1
1
1
1
1
1
1
1
1
1
1
1
1
1
1
1
1
1
1
1
1
1
1
1
1
1
1
1
1
1
1
1
1
1
1
1
1
1
1
1
1
1
1
1
1
1
1
1
1
1
1
1
1
1
1
1
1
1
1
1
1
1
1
1
1
1
1
1
1
1
1
1
1
1
1
1
1
1
1
1
1
1
1
1
1
1
1
1
1
1
1
1
1
1
1
1
1
1
1
1
1
1
1
1
1
1
1
1
1
1
1
1
1
1
1
1
1
1
1
1
1
1
1
1
1
1
1
1
1
1
1
1
1
1
1
1
1
1
1
1
1
1
1
1
1
1
1
1
1
1
1
1
1
1
1
1
1
1
1
1
1
1
1
1
1
1
1
1
1
1
1
1
1
1
1
1
1
1
1
1
1
1
1
1
1
1
1
1
1
1
1
1
1
1
1
1
1
1
1
1
1
1
1
1
1
1
1
1
1
1
1
1
1
1
1
1
1
1
1
1
1
1
1
1
1
1
1
1
1
1
1
1
1
1
1
1
1
1
1
1
1
1
1
1
1
1
1
1
1
1
1
1
1
1
1
1
1
1
1
1
1
1
1
1
1
1
1
1
1
1
1
1
1
1
1
1
1
1
1
1
1
1
1
1
1
1
1
1
1
1
1
1
1
1
1
1
1
1
1
1
1
1
1
1
1
1
1
1
1
1
1
1
1
1
1
1
1
1
1
1
1
1
1
1
1
1
1
1
1
1
1
1
1
1
1
1
1
1
1
1
1
1
1
1
1
1
1
1
1
1
1
1
1
1
1
1
1
1
1
1
1
1
1
1
1
1
1
1
1
1
1
1
1
1
1
1
1
1
1
1
1
1
1
1
1
1
1
1
1
1
1
1
1
1
1
1
1
1
1
1
1
1
1
1
1
1
1
1
1
1
1
1
1
1
1
1
1
1
1
1
1
1
1
1
1
1
1
1
1
1
1
1
1
1
1
1
1
1
1
1
1
1
1
1
1
1
1
1
1
1
1
1
1
1
1
1
1
1
1
1
1
1
1
1
1
1
1
1
1
1
1
1
1
1
1
1
1
1
1
1
1
1
1
1
1
1
1
1
1
1
1
1
1
1
1
1
1
1
1
1
1
1
1
1
1
1
1
1
1
1
1
1
1
1
1
1
1
1
1
1
1
1
1
1
1
1
1
1
1
1
1
1
1
1
1
1
1
1
1
1
1
1
1
1
1
1
1
1
1
1
1
1
1
1
1
1
1
1
1
1
1
1
1
1
1
1
1
1
1
1
1
1
1
1
1
1
1
1
1
1
1
1
1
1
1
1
1
1
1
1
1
1
1
1
1
1
1
1
1
1
1
1
1
1
1
1
1
1
1
1
1
1
1
1
1
1
1
1
1
1
1
1
1
1
1
1
1
1
1
1
1
1
1
1
1
1
1
1
1
1
1
1
1
1
1
1
1
1
1
1
1
1
1
1
1
1
1
1
1
1
1
1
1
1
1
1
1
1
1
1
1
1
1
1
1
1
1
1
1
1
1
1
1
1
1
1
1
1
1
1
1
1
1
1
1
1
1
1
1
1
1
1
1
1
1
1
1
1
1
1
1
1
1
1
1
1
1
1
1
1
1
1
1
1
1
1
1
1
1
1
1
1
1
1
1
1
1
1
1
1
1
1
1
1
1
1
1
1
1
1
1
1
1
1
1
1
1
1
1
1
1
1
1
1
1
1
1
1
1
1
1
1
1
1
1
1
1
1
1
1
1
1
1
1
1
1
1
1
1
1
1
1
1
1
1
1
1
1
1
1
1
1
1
1
1
1
1
1
1
1
1
1
1
1
1
1
1
1
1
1
1
1
1
1
1
1
1
1
1
1
1
1
1
1
1
1
1
1
1
1
1
1
1
1
1
1
1
1
1
1
1
1
1
1
1
1
1
1
1
1
1
1
1
1
1
1
1
1
1
1
1
1
1
1
1
1
1
1
1
1
1
1
1
1
1
1
1
1
1
1
1
1
1
1
1
1
1
1
1
1
1
1
1
1
1
1
1
1
1
1
1
1
1
1
1
1
1
1
1
1
1
1
1
1
1
1
1
1
1
1
1
1
1
1
1
1
1
1
1
1
1
1
1
1
1
1
1
1
1
1
1
1
1
1
1
1
1
1
1
1
1
1
1
1
1
1
1
1
1
1
1
1
1
1
1
1
1
1
1
1
1
1
1
1
1
1
1
1
1
1
1
1
1
1
1
1
1
1
1
1
1
1
1
1
1
1
1
1
1
1
1
1
1
1
1
1
1
1
1
1
1
1
1
1
1
1
1
1
1
1
1
1
1
1
1
1
1
1
1
1
1
1
1
1
1
1
1
1
1
1
1
1
1
1
1
1
1
1
1
1
1
1
1
1
1
1
1
1
1
1
1
1
1
1
1
1
1
1
1
1
1
1
1
1
1
1
1
1
1
1
1
1
1
1
1
1
1
1
1
1
1
1
1
1
1
1
1
1
1
1
1
1
1
1
1
1
1
1
1
1
1
1
1
1
1
1
1
1
1
1
1
1
1
1
1
1
1
1
1
1
1
1
1
1
1
1
1
1
1
1
1
1
1
1
1
1
1
1
1
1
1
1
1
1
1
1
1
1
1
1
1
1
1
1
1
1
1
1
1
1
1
1
1
1
1
1
1
1
1
1
1
1
1
1
1
1
1
1
1
1
1
1
1
1
1
1
1
1
1
1
1
1
1
1
1
1
1
1
1
1
1
1
1
1
1
1
1
1
1
1
1
1
1
1
1
1
1
1
1
1
1
1
1
1
1
1
1
1
1
1
1
1
1
1
1
1
1
1
1
1
1
1
1
1
1
1
1
1
1
1
1
1
1
1
1
1
1
1
1
1
1
1
1
1
1
1
1
1
1
1
1
1
1
1
1
1
1
1
1
1
1
1
1
1
1
1
1
1
1
1
1
1
1
1
1
1
1
1
1
1
1
1
1
1
1
1
1
1
1
1
1
1
1
1
1
1
1
1
1
1
1
1
1
1
1
1
1
1
1
1
1
1
1
1
1
1
1
1
1
1
1
1
1
1
1
1
1
1
1
1
1
1
1
1
1
1
1
1
1
1
1
1
1
1
1
1
1
1
1
1
1
1
1
1
1
1
1
1
1
1
1
1
1
1
1
1
1
1
1
1
1
1
1
1
1
1
1
1
1
1
1
1
1
1
1
1
1
1
1
1
1
1
1
1
1
1
1
1
1
1
1
1
1
1
1
1
1
1
1
1
1
1
1
1
1
1
1
1
1
1
1
1
1
1
1
1
1
1
1
1
1
1
1
1
1
1
1
1
1
1
1
1
1
1
1
1
1
1
1
1
1
1
1
1
1
1
1
1
1
1
1
1
1
1
1
1
1
1
1
1
1
1
1
1
1
1
1
1
1
1
1
1
1
1
1
1
1
1
1
1
1
1
1
1
1
1
1
1
1
1
1
1
1
1
1
1
1
1
1
1
1
1
1
1
1
1
1
1
1
1
1
1
1
1
1
1
1
1
1
1
1
1
1
1
1
1
1
1
1
1
1
1
1
1
1
1
1
1
1
1
1
1
1
1
1
1
1
1
1
1
1
1
1
1
1
1
1
1
1
1
1
1
1
1
1
1
1
1
1
1
1
1
1
1
1
1
1
1
1
1
1
1
1
1
1
1
1
1
1
1
1
1
1
1
1
1
1
1
1
1
1
1
1
1
1
1
1
1
1
1
1
1
1
1
1
1
1
1
1
1
1
1
1
1
1
1
1
1
1
1
1
1
1
1
1
1
1
1
1
1
1
1
1
1
1
1
1
1
1
1
1
1
1
1
1
1
1
1
1
1
1
1
1
1
1
1
1
1
1
1
1
1
1
1
1
1
1
1
1
1
1
1
1
1
1
1
1
1
1
1
1
1
1
1
1
1
1
1
1
1
1
1
1
1
1
1
1
1
1
1
1
1
1
1
1
1
1
1
1
1
1
1
1
1
1
1
1
1
1
1
1
1
1
1
1
1
1
1
1
1
1
1
1
1
1
1
1
1
1
1
1
1
1
1
1
1
1
1
1
1
1
1
1
1
1
1
1
1
1
1
1
1
1
1
1
1
1
1
1
1
1
1
1
1
1
1
1
1
1
1
1
1
1
1
1
1.29053
1.74495
2.33939
2.90446
3.5207
4.20401
4.6605
5.08538
5.33909
5.2631
4.95694
4.47843
4.0533
3.77316
3.66704
3.58703
3.56526
3.59036
3.62447
3.65449
3.68657
3.7094
3.72936
3.74314
3.74766
3.75039
3.75464
3.76062
3.76304
3.76179
3.76201
3.76837
3.78193
3.79443
3.79795
3.79695
3.79297
3.78458
3.77544
3.76967
3.76859
3.76877
3.76939
3.77095
3.77168
3.77187
3.77038
3.76643
1.00251
1.01639
1.0653
1.20673
1.4123
1.76179
2.22303
2.75585
3.31613
3.72237
3.92173
4.03269
4.02763
3.95535
3.85049
3.77782
3.72915
3.71228
3.6754
3.66517
3.67469
3.6966
3.72161
3.74777
3.76
3.76472
3.7636
3.76092
3.76178
3.76169
3.7623
3.766
3.77087
3.77483
3.77803
3.77779
3.77528
3.7713
3.76828
3.76802
3.76856
3.77002
3.77403
3.77835
3.77912
3.77894
3.77658
3.77325
1
0.99998
1.00002
1.0001
1.00143
1.01289
1.0638
1.21882
1.6101
2.3327
3.34355
3.90675
4.29902
4.32385
4.26161
4.12803
3.9583
3.75952
3.66023
3.65506
3.66702
3.68447
3.71097
3.74662
3.76574
3.77134
3.77329
3.77261
3.7726
3.77614
3.77895
3.78086
3.77941
3.77677
3.77369
3.76912
3.76407
3.7604
3.7593
3.75975
3.76133
3.76522
3.77253
3.77944
3.78207
3.78223
3.78144
3.78049
1
1
1
1
0.999999
0.999986
1.00006
1.00008
1.00592
1.06894
1.41754
2.14165
3.15413
3.89572
4.02484
4.02606
3.9691
3.87806
3.80916
3.75172
3.72823
3.70288
3.68931
3.69622
3.71005
3.72802
3.74426
3.75588
3.76547
3.77213
3.77804
3.78202
3.78234
3.78166
3.77931
3.77434
3.77027
3.76767
3.76604
3.76615
3.76813
3.77213
3.7773
3.78095
3.78073
3.77862
3.77572
3.77341
1
1
1
1
1
1
1
1
1
0.999929
1.00185
1.04716
1.28428
2.00914
2.83062
3.68784
4.02791
4.03611
3.99066
3.92746
3.81395
3.73864
3.70324
3.67939
3.67669
3.68624
3.69891
3.71364
3.73011
3.74306
3.75309
3.76152
3.77049
3.77456
3.7753
3.77519
3.77485
3.77415
3.77354
3.77447
3.7776
3.78232
3.78578
3.78628
3.78417
3.78085
3.77473
3.77149
1
1
1
1
1
1
1
1
1
0.999997
0.999998
0.999956
1.00068
1.03138
1.22357
1.79332
2.71391
3.39872
3.91913
3.93586
3.90061
3.83916
3.7982
3.76236
3.72949
3.70252
3.6951
3.6959
3.70758
3.73289
3.75138
3.76443
3.77257
3.77507
3.77517
3.7751
3.77452
3.77252
3.77101
3.77128
3.77419
3.7781
3.77839
3.77591
3.77254
3.76822
3.76272
3.76263
1
1
1
1
1
1
1
1
1
1
1
0.999997
0.999998
0.999964
1.00055
1.0164
1.20428
1.66943
2.57518
3.21768
3.66396
3.86492
3.86436
3.852
3.80235
3.76037
3.73842
3.72326
3.72276
3.73076
3.74649
3.76834
3.7774
3.77885
3.77757
3.77626
3.77454
3.77077
3.76798
3.76674
3.76875
3.77304
3.77343
3.77165
3.76887
3.76713
3.76473
3.76622
1
1
1
1
1
1
1
1
1
1
1
1
1
0.999997
0.999998
0.999973
1.00068
1.01288
1.14177
1.61694
2.36381
3.21992
3.50996
3.65472
3.72555
3.75448
3.75497
3.72939
3.72499
3.73179
3.74042
3.75005
3.76061
3.77104
3.77199
3.7698
3.76766
3.76668
3.76647
3.7694
3.77577
3.77877
3.77875
3.7778
3.7758
3.77404
3.77284
3.7732
1
1
1
1
1
1
1
1
1
1
1
1
1
1
1
0.999998
0.999998
0.999981
1.00033
1.01384
1.10736
1.55848
2.27568
3.11573
3.53454
3.62704
3.6992
3.69131
3.69547
3.71052
3.71196
3.71724
3.72721
3.73875
3.74872
3.75637
3.76099
3.76519
3.76854
3.77332
3.77862
3.7803
3.78093
3.78149
3.7799
3.77591
3.77429
3.77404
1
1
1
1
1
1
1
1
1
1
1
1
1
1
1
1
1
0.999998
0.999998
0.999985
1.00023
1.01271
1.11377
1.48058
2.23918
2.96854
3.53562
3.68011
3.70461
3.71843
3.71963
3.71264
3.71384
3.71895
3.72845
3.73916
3.74888
3.75832
3.76628
3.77327
3.77627
3.77619
3.77713
3.77902
3.77801
3.7746
3.77357
3.7729
1
1
1
1
1
1
1
1
1
1
1
1
1
1
1
1
1
1
1
0.999998
0.999999
0.999986
1.00037
1.00874
1.124
1.46392
2.22506
2.92514
3.45875
3.69841
3.75704
3.75207
3.75594
3.75421
3.75008
3.75462
3.76246
3.76999
3.77958
3.78465
3.7849
3.78092
3.77796
3.77596
3.7725
3.76856
3.76722
3.7663
1
1
1
1
1
1
1
1
1
1
1
1
1
1
1
1
1
1
1
1
1
0.999998
0.999999
0.999987
1.00063
1.00934
1.11278
1.52025
2.25154
2.99192
3.3874
3.62915
3.72638
3.74433
3.7449
3.76305
3.77015
3.7739
3.78084
3.78482
3.78678
3.78516
3.78248
3.78101
3.7774
3.77403
3.77282
3.77224
1
1
1
1
1
1
1
1
1
1
1
1
1
1
1
1
1
1
1
1
1
1
1
0.999998
0.999999
0.99999
1.00064
1.01519
1.11611
1.57706
2.29446
3.16991
3.46462
3.57947
3.64242
3.70872
3.72399
3.73716
3.75161
3.7642
3.77125
3.77421
3.77238
3.77107
3.76999
3.77095
3.77359
3.77545
1
1
1
1
1
1
1
1
1
1
1
1
1
1
1
1
1
1
1
1
1
1
1
1
1
0.999998
0.999999
0.999997
1.00071
1.02328
1.1489
1.66368
2.45678
3.23647
3.62583
3.67241
3.69713
3.71402
3.72732
3.74243
3.74951
3.74989
3.75232
3.75677
3.7618
3.76645
3.76912
3.77212
1
1
1
1
1
1
1
1
1
1
1
1
1
1
1
1
1
1
1
1
1
1
1
1
1
1
1
1
0.999998
1.00003
1.00132
1.03241
1.22952
1.82351
2.6766
3.34056
3.69187
3.76977
3.77332
3.78136
3.77766
3.76815
3.76397
3.7681
3.77324
3.77654
3.77719
3.77816
1
1
1
1
1
1
1
1
1
1
1
1
1
1
1
1
1
1
1
1
1
1
1
1
1
1
1
1
1
1
0.999998
1.00009
1.00344
1.05445
1.37366
2.08807
2.91978
3.41069
3.68235
3.76085
3.76058
3.77441
3.78536
3.78797
3.79006
3.79105
3.78955
3.78817
1
1
1
1
1
1
1
1
1
1
1
1
1
1
1
1
1
1
1
1
1
1
1
1
1
1
1
1
1
1
1
1
0.999996
1.00031
1.01043
1.10404
1.58118
2.43892
3.2978
3.52049
3.61421
3.7011
3.73291
3.74837
3.76334
3.77543
3.78182
3.78347
1
1
1
1
1
1
1
1
1
1
1
1
1
1
1
1
1
1
1
1
1
1
1
1
1
1
1
1
1
1
1
1
0.999999
0.999999
1
1.00114
1.03153
1.22595
1.91907
2.82517
3.53432
3.67592
3.70664
3.72375
3.73712
3.75418
3.76866
3.77003
1
1
1
1
1
1
1
1
1
1
1
1
1
1
1
1
1
1
1
1
1
1
1
1
1
1
1
1
1
1
1
1
1
1
1
0.999998
1.00013
1.00479
1.08945
1.47655
2.40233
3.22031
3.67456
3.79134
3.79519
3.79456
3.79593
3.78876
1
1
1
1
1
1
1
1
1
1
1
1
1
1
1
1
1
1
1
1
1
1
1
1
1
1
1
1
1
1
1
1
1
1
1
1
0.999999
1
1.00104
1.02178
1.26004
1.95665
2.93678
3.42129
3.68119
3.78515
3.78189
3.78312
1
1
1
1
1
1
1
1
1
1
1
1
1
1
1
1
1
1
1
1
1
1
1
1
1
1
1
1
1
1
1
1
1
1
1
1
1
1
0.999999
1.00011
1.00768
1.09394
1.60362
2.59386
3.43763
3.60359
3.66534
3.70248
1
1
1
1
1
1
1
1
1
1
1
1
1
1
1
1
1
1
1
1
1
1
1
1
1
1
1
1
1
1
1
1
1
1
1
1
1
1
1
1
1.00001
1.00148
1.04287
1.34606
2.229
3.20033
3.67754
3.73296
1
1
1
1
1
1
1
1
1
1
1
1
1
1
1
1
1
1
1
1
1
1
1
1
1
1
1
1
1
1
1
1
1
1
1
1
1
1
1
1
1
1
1.00039
1.01563
1.2006
1.91561
2.86975
3.55232
1
1
1
1
1
1
1
1
1
1
1
1
1
1
1
1
1
1
1
1
1
1
1
1
1
1
1
1
1
1
1
1
1
1
1
1
1
1
1
1
1
1
1
1.00011
1.00569
1.10223
1.69006
2.7347
1
1
1
1
1
1
1
1
1
1
1
1
1
1
1
1
1
1
1
1
1
1
1
1
1
1
1
1
1
1
1
1
1
1
1
1
1
1
1
1
1
1
1
1
1.00002
1.0023
1.07133
1.42882
1
1
1
1
1
1
1
1
1
1
1
1
1
1
1
1
1
1
1
1
1
1
1
1
1
1
1
1
1
1
1
1
1
1
1
1
1
1
1
1
1
1
1
1
1
1.00001
1.00144
1.01647
1
1
1
1
1
1
1
1
1
1
1
1
1
1
1
1
1
1
1
1
1
1
1
1
1
1
1
1
1
1
1
1
1
1
1
1
1
1
1
1
1
1
1
1
1
1
1.00001
0.999848
1
1
1
1
1
1
1
1
1
1
1
1
1
1
1
1
1
1
1
1
1
1
1
1
1
1
1
1
1
1
1
1
1
1
1
1
1
1
1
1
1
1
1
1
1
1
1
0.999945
1
1
1
1
1
1
1
1
1
1
1
1
1
1
1
1
1
1
1
1
1
1
1
1
1
1
1
1
1
1
1
1
1
1
1
1
1
1
1
1
1
1
1
1
1
1
1
0.99999
1
1
1
1
1
1
1
1
1
1
1
1
1
1
1
1
1
1
1
1
1
1
1
1
1
1
1
1
1
1
1
1
1
1
1
1
1
1
1
1
1
1
1
1
1
1
1
1
1
1
1
1
1
1
1
1
1
1
1
1
1
1
1
1
1
1
1
1
1
1
1
1
1
1
1
1
1
1
1
1
1
1
1
1
1
1
1
1
1
1
1
1
1
1
1
1
1
1
1
1
1
1
1
1
1
1
1
1
1
1
1
1
1
1
1
1
1
1
1
1
1
1
1
1
1
1
1
1
1
1
1
1
1
1
1
1
1
1
1
1
1
1
1
1
1
1
1
1
1
1
1
1
1
1
1
1
1
1
1
1
1
1
1
1
1
1
1
1
1
1
1
1
1
1
1
1
1
1
1
1
1
1
1
1
1
1
1
1
1
1
1
1
1
1
1
1
1
1
1
1
1
1
1
1
1
1
1
1
1
1
1
1
1
1
1
1
1
1
1
1
1
1
1
1
1
1
1
1
1
1
1
1
1
1
1
1
1
1
1
1
1
1
1
1
1
1
1
1
1
1
1
1
1
1
1
1
1
1
1
1
1
1
1
1
1
1
1
1
1
1
1
1
1
1
1
1
1
1
1
1
1
1
1
1
1
1
1
1
1
1
1
1
1
1
1
1
1
1
1
1
1
1
1
1
1
1
1
1
1
1
1
1
1
1
1
1
1
1
1
1
1
1
1
1
1
1
1
1
1
1
1
1
1
1
1
0.99999
1
1
1
1
1
1
1
1
1
1
1
1
1
1
1
1
1
1
1
1
1
1
1
1
1
1
1
1
1
1
1
1
1
1
1
1
1
1
1
1
1
1
1
1
1
1
1
0.999944
1
1
1
1
1
1
1
1
1
1
1
1
1
1
1
1
1
1
1
1
1
1
1
1
1
1
1
1
1
1
1
1
1
1
1
1
1
1
1
1
1
1
1
1
1
1
1.00001
0.999846
1
1
1
1
1
1
1
1
1
1
1
1
1
1
1
1
1
1
1
1
1
1
1
1
1
1
1
1
1
1
1
1
1
1
1
1
1
1
1
1
1
1
1
1
1
1.00001
1.00144
1.01635
1
1
1
1
1
1
1
1
1
1
1
1
1
1
1
1
1
1
1
1
1
1
1
1
1
1
1
1
1
1
1
1
1
1
1
1
1
1
1
1
1
1
1
1
1.00002
1.00231
1.0713
1.42952
1
1
1
1
1
1
1
1
1
1
1
1
1
1
1
1
1
1
1
1
1
1
1
1
1
1
1
1
1
1
1
1
1
1
1
1
1
1
1
1
1
1
1
1.00011
1.00568
1.10229
1.69008
2.73633
1
1
1
1
1
1
1
1
1
1
1
1
1
1
1
1
1
1
1
1
1
1
1
1
1
1
1
1
1
1
1
1
1
1
1
1
1
1
1
1
1
1
1.00039
1.01562
1.20053
1.91572
2.86991
3.55288
1
1
1
1
1
1
1
1
1
1
1
1
1
1
1
1
1
1
1
1
1
1
1
1
1
1
1
1
1
1
1
1
1
1
1
1
1
1
1
1
1.00001
1.00148
1.04291
1.34589
2.2289
3.20069
3.67725
3.73305
1
1
1
1
1
1
1
1
1
1
1
1
1
1
1
1
1
1
1
1
1
1
1
1
1
1
1
1
1
1
1
1
1
1
1
1
1
1
0.999999
1.00011
1.00768
1.09393
1.60382
2.59309
3.43858
3.604
3.66516
3.70209
1
1
1
1
1
1
1
1
1
1
1
1
1
1
1
1
1
1
1
1
1
1
1
1
1
1
1
1
1
1
1
1
1
1
1
1
0.999999
1
1.00104
1.02178
1.26001
1.95679
2.93659
3.42101
3.68185
3.78514
3.78166
3.78281
1
1
1
1
1
1
1
1
1
1
1
1
1
1
1
1
1
1
1
1
1
1
1
1
1
1
1
1
1
1
1
1
1
1
1
0.999998
1.00013
1.00479
1.08947
1.47654
2.40223
3.22043
3.67452
3.79129
3.79526
3.79461
3.79583
3.78855
1
1
1
1
1
1
1
1
1
1
1
1
1
1
1
1
1
1
1
1
1
1
1
1
1
1
1
1
1
1
1
1
0.999999
0.999999
1
1.00114
1.03153
1.22595
1.91911
2.82511
3.5343
3.67601
3.70669
3.72375
3.73711
3.75418
3.76863
3.76997
1
1
1
1
1
1
1
1
1
1
1
1
1
1
1
1
1
1
1
1
1
1
1
1
1
1
1
1
1
1
1
1
0.999996
1.00031
1.01043
1.10405
1.58117
2.43895
3.29778
3.52045
3.61423
3.70116
3.73293
3.74835
3.76332
3.77541
3.7818
3.78345
1
1
1
1
1
1
1
1
1
1
1
1
1
1
1
1
1
1
1
1
1
1
1
1
1
1
1
1
1
1
0.999998
1.00009
1.00344
1.05445
1.37366
2.08808
2.91977
3.41071
3.68235
3.76084
3.76059
3.77444
3.78536
3.78795
3.79005
3.79104
3.78954
3.78815
1
1
1
1
1
1
1
1
1
1
1
1
1
1
1
1
1
1
1
1
1
1
1
1
1
1
1
1
0.999998
1.00003
1.00132
1.03241
1.22952
1.82351
2.67661
3.34055
3.69187
3.76977
3.77332
3.78136
3.77767
3.76816
3.76396
3.76809
3.77323
3.77653
3.77718
3.77815
1
1
1
1
1
1
1
1
1
1
1
1
1
1
1
1
1
1
1
1
1
1
1
1
1
0.999998
0.999999
0.999997
1.00071
1.02328
1.1489
1.66368
2.45678
3.23647
3.62583
3.67241
3.69714
3.71402
3.72732
3.74243
3.74951
3.74989
3.75231
3.75676
3.76179
3.76644
3.76912
3.77212
1
1
1
1
1
1
1
1
1
1
1
1
1
1
1
1
1
1
1
1
1
1
1
0.999998
0.999999
0.99999
1.00064
1.01519
1.11611
1.57706
2.29446
3.16991
3.46462
3.57947
3.64242
3.70872
3.72399
3.73716
3.75161
3.7642
3.77125
3.77421
3.77238
3.77107
3.76999
3.77095
3.77359
3.77545
1
1
1
1
1
1
1
1
1
1
1
1
1
1
1
1
1
1
1
1
1
0.999998
0.999999
0.999987
1.00063
1.00934
1.11278
1.52025
2.25154
2.99192
3.3874
3.62914
3.72638
3.74433
3.7449
3.76305
3.77015
3.7739
3.78084
3.78482
3.78678
3.78516
3.78248
3.78101
3.7774
3.77403
3.77281
3.77224
1
1
1
1
1
1
1
1
1
1
1
1
1
1
1
1
1
1
1
0.999998
0.999999
0.999986
1.00037
1.00874
1.124
1.46392
2.22506
2.92514
3.45875
3.69841
3.75704
3.75207
3.75594
3.75421
3.75008
3.75462
3.76246
3.76999
3.77958
3.78465
3.7849
3.78092
3.77796
3.77596
3.7725
3.76856
3.76722
3.7663
1
1
1
1
1
1
1
1
1
1
1
1
1
1
1
1
1
0.999998
0.999998
0.999985
1.00023
1.01271
1.11377
1.48058
2.23918
2.96854
3.53562
3.68011
3.70461
3.71843
3.71963
3.71265
3.71384
3.71895
3.72845
3.73916
3.74888
3.75832
3.76628
3.77327
3.77627
3.77619
3.77713
3.77902
3.77801
3.7746
3.77357
3.7729
1
1
1
1
1
1
1
1
1
1
1
1
1
1
1
0.999998
0.999998
0.999981
1.00033
1.01384
1.10736
1.55848
2.27568
3.11573
3.53454
3.62704
3.6992
3.69131
3.69547
3.71052
3.71196
3.71724
3.72721
3.73875
3.74872
3.75637
3.761
3.76519
3.76854
3.77332
3.77862
3.7803
3.78093
3.78149
3.7799
3.77591
3.77429
3.77404
1
1
1
1
1
1
1
1
1
1
1
1
1
0.999997
0.999998
0.999973
1.00068
1.01288
1.14177
1.61694
2.36381
3.21992
3.50996
3.65472
3.72555
3.75448
3.75497
3.72939
3.72499
3.73179
3.74042
3.75005
3.76061
3.77104
3.77199
3.7698
3.76766
3.76668
3.76647
3.7694
3.77577
3.77877
3.77875
3.7778
3.7758
3.77404
3.77284
3.7732
1
1
1
1
1
1
1
1
1
1
1
0.999997
0.999998
0.999964
1.00055
1.0164
1.20428
1.66943
2.57518
3.21768
3.66396
3.86492
3.86436
3.852
3.80235
3.76037
3.73842
3.72326
3.72276
3.73076
3.74649
3.76834
3.7774
3.77885
3.77757
3.77626
3.77454
3.77077
3.76798
3.76674
3.76875
3.77304
3.77343
3.77165
3.76887
3.76713
3.76473
3.76622
1
1
1
1
1
1
1
1
1
0.999997
0.999998
0.999956
1.00068
1.03138
1.22357
1.79332
2.71391
3.39872
3.91913
3.93586
3.90061
3.83916
3.7982
3.76236
3.72949
3.70252
3.6951
3.6959
3.70758
3.73289
3.75138
3.76443
3.77257
3.77507
3.77517
3.7751
3.77452
3.77252
3.77101
3.77128
3.77419
3.7781
3.77839
3.77591
3.77254
3.76822
3.76272
3.76263
1
1
1
1
1
1
1
1
1
0.999929
1.00185
1.04716
1.28428
2.00914
2.83062
3.68784
4.02791
4.03611
3.99066
3.92746
3.81395
3.73864
3.70324
3.67939
3.67669
3.68624
3.69891
3.71364
3.73011
3.74306
3.75309
3.76152
3.77049
3.77456
3.7753
3.77519
3.77485
3.77415
3.77354
3.77447
3.7776
3.78232
3.78578
3.78628
3.78417
3.78085
3.77473
3.77149
1
1
1
1
0.999999
0.999986
1.00006
1.00008
1.00592
1.06894
1.41754
2.14165
3.15413
3.89572
4.02484
4.02606
3.9691
3.87806
3.80916
3.75172
3.72823
3.70288
3.68931
3.69622
3.71005
3.72802
3.74426
3.75588
3.76547
3.77213
3.77804
3.78202
3.78234
3.78166
3.77931
3.77434
3.77027
3.76767
3.76604
3.76615
3.76813
3.77213
3.7773
3.78095
3.78073
3.77862
3.77572
3.77341
1
0.99998
1.00002
1.0001
1.00143
1.01289
1.0638
1.21882
1.6101
2.3327
3.34355
3.90675
4.29902
4.32385
4.26161
4.12803
3.9583
3.75952
3.66023
3.65506
3.66702
3.68447
3.71097
3.74662
3.76574
3.77134
3.77329
3.77261
3.7726
3.77614
3.77895
3.78086
3.77941
3.77677
3.77369
3.76912
3.76407
3.7604
3.7593
3.75975
3.76133
3.76522
3.77253
3.77944
3.78207
3.78223
3.78144
3.78049
1.00251
1.01639
1.0653
1.20673
1.4123
1.76179
2.22303
2.75585
3.31613
3.72237
3.92173
4.03269
4.02763
3.95535
3.85049
3.77782
3.72915
3.71228
3.6754
3.66517
3.67469
3.6966
3.72161
3.74777
3.76
3.76472
3.7636
3.76092
3.76178
3.76169
3.7623
3.766
3.77087
3.77483
3.77803
3.77779
3.77528
3.7713
3.76828
3.76802
3.76856
3.77002
3.77403
3.77835
3.77912
3.77894
3.77658
3.77325
1.29053
1.74495
2.33939
2.90446
3.5207
4.20401
4.6605
5.08538
5.33909
5.2631
4.95694
4.47843
4.0533
3.77316
3.66704
3.58703
3.56526
3.59036
3.62447
3.65449
3.68657
3.7094
3.72936
3.74314
3.74766
3.75039
3.75464
3.76062
3.76304
3.76179
3.762
3.76837
3.78193
3.79443
3.79795
3.79695
3.79297
3.78458
3.77544
3.76967
3.76859
3.76877
3.76939
3.77095
3.77168
3.77187
3.77038
3.76643
2.65066
1.73917
1.07208
0.763359
0.750484
0.704482
0.679685
0.713693
0.798013
0.859927
0.884794
0.930481
0.996618
1.03224
1.03537
1.04282
1.06403
1.0672
1.06415
1.06608
1.06678
1.06157
1.05837
1.06222
1.06534
1.06314
1.05013
1.03896
1.03897
1.04084
1.04251
1.04276
1.04215
1.04207
1.04159
1.04026
1.04027
1.04144
1.04522
1.04979
1.0507
1.05074
1.05031
1.04844
1.04696
1.0467
1.04617
1.04744
1.05704
1.21765
1.90657
3.2709
5.23428
7.84837
10.3325
10.1876
9.30103
8.27674
7.898
7.85932
7.75516
7.59111
7.45636
7.33259
7.15777
6.92534
6.73761
6.60566
6.48096
6.34256
6.16678
5.9534
5.80385
5.72613
5.67699
5.65232
5.59512
5.51645
5.38804
5.15161
4.88053
4.75451
4.69814
4.66238
4.68104
4.69003
4.64382
4.57716
4.42512
4.20585
4.09189
4.04573
4.00974
3.97466
3.93007
3.86688
3.75222
3.60274
3.54132
3.51596
3.49918
3.49371
3.4705
3.43659
3.36722
3.21621
3.07979
3.04052
3.02043
3.00216
2.99285
2.98001
2.9577
2.92628
2.86337
2.76315
2.68063
2.63699
2.60649
2.57827
2.55065
2.52324
2.4946
2.46455
2.43468
2.40497
2.37166
2.32566
2.26249
2.21745
2.1997
2.186
2.17265
2.15977
2.14552
2.12573
2.09268
2.03266
1.96919
1.93415
1.91689
1.90357
1.89489
1.8885
1.90902
2.00878
2.31765
2.95119
3.71892
4.39407
5.02844
5.57902
5.70742
5.61155
5.40966
5.21658
5.13666
5.10285
5.05824
5.00947
4.96334
4.89556
4.78251
4.68757
4.63179
4.59951
4.57678
4.55993
4.55579
4.53935
4.5111
4.48277
4.44149
4.35486
4.22337
4.14235
4.11269
4.09348
4.08331
4.09191
4.08563
4.06277
4.03472
3.97675
3.87204
3.80818
3.78378
3.76351
3.74374
3.72217
3.70018
3.63919
3.35657
2.7649
2.23664
1.68899
1.44384
1.29987
1.11299
1.04419
1.02011
0.964938
0.912914
0.909381
0.932112
0.952361
0.963843
0.977089
1.0057
1.01269
1.01606
1.02297
1.03913
1.05089
1.05643
1.06071
1.06111
1.05794
1.04722
1.04261
1.04348
1.04477
1.04631
1.04748
1.04769
1.04785
1.04681
1.04556
1.04516
1.04545
1.04712
1.04816
1.04844
1.04863
1.04827
1.04693
1.04527
1.04335
1.04409
1.0573
1.20312
1.91895
2.79429
3.17466
3.88272
4.80808
6.65511
8.10758
8.67645
8.48049
8.16636
7.93873
7.71591
7.58269
7.49034
7.3653
7.17429
6.94055
6.72274
6.60213
6.49575
6.3637
6.20471
6.02936
5.87373
5.7476
5.66063
5.59892
5.54275
5.46619
5.35236
5.17324
4.97672
4.83544
4.75192
4.7051
4.66963
4.63986
4.5944
4.52393
4.40955
4.25309
4.13415
4.06099
4.00615
3.96482
3.926
3.87678
3.79034
3.65876
3.56089
3.52348
3.49724
3.47221
3.45082
3.41633
3.358
3.24781
3.11818
3.0508
3.02575
3.0085
2.98854
2.96607
2.94376
2.9188
2.87516
2.79146
2.71494
2.67206
2.64078
2.61117
2.5811
2.55139
2.52202
2.4914
2.45966
2.4263
2.38837
2.34243
2.28829
2.24794
2.22607
2.20988
2.19419
2.17926
2.16325
2.14115
2.10514
2.04482
1.9762
1.9407
1.9241
1.91382
1.91674
1.9527
2.11322
2.41971
2.8343
3.09464
3.38679
3.80679
4.26457
4.68474
4.99928
5.25516
5.3149
5.26851
5.21108
5.15078
5.08345
5.02226
4.97532
4.90825
4.79929
4.70302
4.64507
4.61021
4.58732
4.56716
4.54588
4.52497
4.50263
4.47532
4.43214
4.35609
4.25882
4.17872
4.13004
4.10484
4.08778
4.0747
4.06858
4.05161
4.02494
3.97824
3.89437
3.82774
3.8005
3.77839
3.75677
3.73397
3.70988
3.6494
3.6671
3.32769
2.8822
2.37937
1.95308
1.68807
1.42247
1.20521
1.12356
1.04502
0.948615
0.932037
0.942385
0.941059
0.938777
0.945375
0.958702
0.968987
0.976202
0.991216
1.02112
1.04016
1.04523
1.04881
1.05054
1.04933
1.04516
1.04581
1.04788
1.05051
1.05366
1.05409
1.05328
1.05089
1.04678
1.04549
1.04528
1.04579
1.04664
1.04667
1.04701
1.04687
1.04536
1.04477
1.04388
1.04678
1.08012
1.26167
2.04053
3.04189
3.28953
3.31368
3.38111
3.51573
4.14255
5.92447
7.98219
8.73472
8.49369
7.91057
7.57704
7.51638
7.45361
7.3021
7.13609
6.98084
6.79279
6.59483
6.4216
6.27249
6.1476
6.05176
5.94151
5.81228
5.67424
5.55592
5.45981
5.35985
5.23869
5.11121
5.02555
4.95266
4.8617
4.7572
4.67656
4.60523
4.5264
4.43226
4.32776
4.23765
4.16843
4.09851
4.02591
3.95813
3.89906
3.83608
3.76374
3.68267
3.59548
3.53082
3.49759
3.46526
3.42429
3.37059
3.30303
3.23035
3.16343
3.09039
3.03096
3.00451
2.9855
2.96252
2.93302
2.88791
2.82613
2.7594
2.70523
2.66487
2.62913
2.59675
2.56573
2.5324
2.49794
2.46169
2.42583
2.39437
2.36222
2.32517
2.2871
2.24688
2.21312
2.19056
2.17184
2.15438
2.13626
2.11179
2.07358
2.02177
1.98497
1.95849
1.94752
1.95605
2.02446
2.25036
2.6407
3.01374
3.26987
3.28499
3.27573
3.33717
3.53634
3.91407
4.41736
4.96354
5.18771
5.27461
5.25496
5.19601
5.0941
5.01722
4.95344
4.87366
4.77124
4.68689
4.66015
4.63982
4.6138
4.57853
4.53881
4.50764
4.47786
4.44142
4.38854
4.32044
4.26467
4.22528
4.17919
4.12708
4.09489
4.07267
4.04795
4.01975
3.98872
3.95053
3.90386
3.85162
3.80014
3.76007
3.73049
3.70421
3.68005
3.62796
3.75119
3.61727
3.32502
2.91853
2.4751
2.13975
1.84324
1.55243
1.42105
1.3113
1.144
1.08657
1.06275
1.00793
0.962549
0.962752
0.958777
0.942353
0.941132
0.951916
0.979696
1.00173
1.01101
1.0177
1.02908
1.03325
1.0364
1.0404
1.04632
1.05304
1.05515
1.05537
1.05435
1.05232
1.05032
1.05015
1.05149
1.05395
1.05397
1.05283
1.0512
1.04767
1.04249
1.04203
1.04612
1.11655
1.47065
2.14104
3.17386
3.5058
3.45059
3.38062
3.3531
3.34167
3.35426
3.68963
5.10779
7.39701
8.0038
7.762
7.65448
7.52763
7.39661
7.22119
7.11582
7.02998
6.85996
6.58701
6.36082
6.23495
6.14911
6.0721
5.99504
5.88881
5.72965
5.5258
5.35622
5.24374
5.17349
5.12729
5.09982
5.04578
4.95944
4.83687
4.67417
4.53173
4.42478
4.3508
4.3019
4.26464
4.22199
4.16155
4.07346
3.96204
3.87025
3.81589
3.77562
3.72734
3.65818
3.57605
3.49679
3.43355
3.37458
3.31742
3.27177
3.24025
3.20589
3.15079
3.08116
3.01504
2.98004
2.95258
2.91119
2.84811
2.78478
2.74214
2.70977
2.67573
2.63548
2.59921
2.57559
2.54942
2.50875
2.45683
2.40703
2.37561
2.3561
2.33731
2.31034
2.26982
2.22139
2.18935
2.16974
2.15146
2.12925
2.09879
2.05979
2.01975
1.98839
1.9804
1.9999
2.117
2.43331
2.87436
3.2355
3.39629
3.40464
3.35317
3.2508
3.23073
3.24391
3.34972
3.6356
4.13026
4.65802
5.02347
5.11519
5.09758
5.08432
5.04185
4.95508
4.85086
4.76077
4.72875
4.71168
4.68742
4.64871
4.6029
4.55492
4.50104
4.44793
4.39418
4.346
4.31353
4.2915
4.26575
4.22947
4.17808
4.11646
4.06343
4.02701
3.99314
3.96161
3.93836
3.91465
3.87114
3.81092
3.76375
3.72987
3.69689
3.66952
3.62586
3.76171
3.73049
3.59553
3.31583
2.92252
2.58417
2.24739
1.91748
1.72891
1.58599
1.38053
1.25418
1.18403
1.10202
1.001
0.982916
0.9723
0.946893
0.944973
0.954473
0.968924
0.971033
0.974438
0.978205
0.988627
1.0032
1.01498
1.02671
1.03707
1.04637
1.05037
1.05127
1.04988
1.04725
1.04821
1.05262
1.05766
1.0591
1.05876
1.05722
1.05357
1.047
1.04165
1.04372
1.11332
1.6658
2.49507
3.17669
3.53231
3.56132
3.49164
3.39093
3.3212
3.30757
3.29294
3.25364
3.39214
4.3845
6.34549
7.48737
7.69479
7.50832
7.26331
7.13808
7.0862
6.98913
6.81783
6.55393
6.32981
6.2299
6.151
6.06732
5.97474
5.87322
5.72297
5.48552
5.29206
5.21188
5.15808
5.11772
5.09074
5.04073
4.97645
4.86284
4.64668
4.45466
4.37738
4.33108
4.28884
4.24381
4.19743
4.14631
4.07443
3.96581
3.85975
3.79591
3.74803
3.70418
3.65625
3.58933
3.48582
3.38966
3.33226
3.29326
3.26188
3.22957
3.19373
3.16201
3.12034
3.05772
2.98275
2.91977
2.8682
2.82096
2.77844
2.74428
2.71683
2.68996
2.65882
2.61785
2.56807
2.52329
2.47867
2.4327
2.3983
2.37229
2.34713
2.32007
2.29204
2.25782
2.21561
2.17966
2.15956
2.14349
2.12545
2.09505
2.05648
2.01941
2.01393
2.05778
2.26977
2.65366
3.12313
3.39549
3.44988
3.45123
3.42291
3.35414
3.27079
3.23024
3.22162
3.23905
3.28768
3.44238
3.81388
4.3129
4.81701
4.98664
5.05146
5.01392
4.91537
4.83212
4.78886
4.76247
4.73036
4.6896
4.64905
4.61249
4.55713
4.47518
4.39728
4.35004
4.3252
4.31087
4.29591
4.27152
4.24429
4.20926
4.15001
4.07351
4.01577
3.9781
3.94483
3.91133
3.87981
3.85244
3.82533
3.78556
3.73906
3.69878
3.66828
3.61614
3.76182
3.74595
3.70115
3.56092
3.2738
2.96421
2.65157
2.30836
2.06074
1.87076
1.65692
1.49855
1.39867
1.29524
1.15652
1.11781
1.08873
1.03486
1.00361
1.0054
0.996504
0.975014
0.964032
0.960693
0.961723
0.967196
0.979989
0.999784
1.02081
1.03199
1.03884
1.04258
1.04234
1.04168
1.04405
1.0531
1.05779
1.05856
1.05897
1.05761
1.05196
1.04607
1.05031
1.11809
1.65824
2.74312
3.23984
3.51507
3.58985
3.52788
3.46387
3.40539
3.30501
3.23934
3.22047
3.20647
3.16316
3.21509
3.79974
5.38881
6.88331
7.13253
7.18168
7.18486
7.13072
6.96658
6.76263
6.53658
6.32438
6.21773
6.13639
6.05484
5.96463
5.86722
5.72712
5.49494
5.28428
5.20556
5.15138
5.10909
5.08132
5.02909
4.95754
4.8464
4.64412
4.4399
4.35794
4.31302
4.27114
4.23949
4.20484
4.16202
4.09342
3.95978
3.82938
3.77301
3.73635
3.70355
3.66804
3.60552
3.48384
3.35283
3.30227
3.27615
3.25568
3.24644
3.23276
3.20627
3.16777
3.08728
2.9524
2.86174
2.82806
2.80804
2.79465
2.7761
2.75521
2.7333
2.70499
2.65647
2.57691
2.50026
2.45655
2.42612
2.3984
2.37204
2.34468
2.32077
2.29295
2.25503
2.21649
2.18537
2.15726
2.1285
2.1031
2.08038
2.05789
2.06129
2.14963
2.44097
2.90601
3.22995
3.47764
3.55689
3.55847
3.52318
3.44948
3.38447
3.33897
3.29495
3.25368
3.22385
3.20064
3.20602
3.27138
3.49443
3.93618
4.44467
4.78499
4.84112
4.84792
4.85764
4.84579
4.81582
4.76403
4.71127
4.66929
4.62558
4.54408
4.43067
4.36165
4.3308
4.30937
4.30065
4.31165
4.30162
4.27493
4.24117
4.18327
4.0951
4.01694
3.96766
3.93092
3.89598
3.86288
3.8331
3.80455
3.77311
3.73573
3.70145
3.67406
3.62085
3.76682
3.75549
3.73882
3.68175
3.52066
3.28507
2.98006
2.65941
2.40551
2.1784
1.93266
1.7586
1.62162
1.4925
1.35168
1.28063
1.22402
1.13754
1.06707
1.05069
1.02307
0.986477
0.973575
0.970796
0.965331
0.966675
0.972741
0.985926
0.995694
1.00017
1.00551
1.01315
1.02032
1.02791