/*--------------------------------*- C++ -*----------------------------------*\
  =========                 |
  \\      /  F ield         | OpenFOAM: The Open Source CFD Toolbox
   \\    /   O peration     | Website:  https://openfoam.org
    \\  /    A nd           | Version:  7
     \\/     M anipulation  |
\*---------------------------------------------------------------------------*/
FoamFile
{
    version     2.0;
    format      ascii;
    class       volScalarField;
    location    "2.4";
    object      T;
}
// * * * * * * * * * * * * * * * * * * * * * * * * * * * * * * * * * * * * * //

dimensions      [0 0 0 1 0 0 0];

internalField   nonuniform List<scalar> 
18432
(
1
1
1
1
1
1
1
1
1
1
1
1
1
1
1
1
1
1
1
1
1
1
1
1
1
1
1
1
1
1
1
1
1
1
1
1
1
1
1
1
1
1
1
1
1
1
1
1
1
1
1
1
1
1
1
1
1
1
1
1
1
1
1
1
1
1
1
1
1
1
1
1
1
1
1
1
1
1
1
1
1
1
1
1
1
1
1
1
1
1
1
1
1
1
1
1
1
1
1
1
1
1
1
1
1
1
1
1
1
1
1
1
1
1
1
1
1
1
1
1
1
1
1
1
1
1
1
1
1
1
1
1
1
1
1
1
1
1
1
1
1
1
1
1
1
1
1
1
1
1
1
1
1
1
1
1
1
1
1
1
1
1
1
1
1
1
1
1
1
1
1
1
1
1
1
1
1
1
1
1
1
1
1
1
1
1
1
1
1
1
1
1
1
1
1
1
1
1
1
1
1
1
1
1
1
1
1
1
1
1
1
1
1
1
1
1
1
1
1
1
1
1
1
1
1
1
1
1
1
1
1
1
1
1
1
1
1
1
1
1
1
1
1
1
1
1
1
1
1
1
1
1
1
1
1
1
1
1
1
1
1
1
1
1
1
1
1
1
1
1
1
1
1
1
1
1
1
1
1
1
1
1
1
1
1
1
1
1
1
1
1
1
1
1
1
1
1
1
1
1
1
1
1
1
1
1
1
1
1
1
1
1
1
1
1
1
1
1
1
1
1
1
1
1
1
1
1
1
1
1
1
1
1
1
1
1
1
1
1
1
1
1
1
1
1
1
1
1
1
1
1
1
1
1
1
1
1
1
1
1
1
1
1
1
1
1
1
1
1
1
1
1
1
1
1
1
1
1
1
1
1
1
1
1
1
1
1
1
1
1
1
1
1
1
1
1
1
1
1
1
1
1
1
1
1
1
1
1
1
1
1
1
1
1
1
1
1
1
1
1
1
1
1
1
1
1
1
1
1
1
1
1
1
1
1
1
1
1
1
1
1
1
1
1
1
1
1
1
1
1
1
1
1
1
1
1
1
1
1
1
1
1
1
1
1
1
1
1
1
1
1
1
1
1
1
1
1
1
1
1
1
1
1
1
1
1
1
1
1
1
1
1
1
1
1
1
1
1
1
1
1
1
1
1
1
1
1
1
1
1
1
1
1
1
1
1
1
1
1
1
1
1
1
1
1
1
1
1
1
1
1
1
1
1
1
1
1
1
1
1
1
1
1
1
1
1
1
1
1
1
1
1
1
1
1
1
1
1
1
1
1
1
1
1
1
1
1
1
1
1
1
1
1
1
1
1
1
1
1
1
1
1
1
1
1
1
1
1
1
1
1
1
1
1
1
1
1
1
1
1
1
1
1
1
1
1
1
1
1
1
1
1
1
1
1
1
1
1
1
1
1
1
1
1
1
1
1
1
1
1
1
1
1
1
1
1
1
1
1
1
1
1
1
1
1
1
1
1
1
1
1
1
1
1
1
1
1
1
1
1
1
1
1
1
1
1
1
1
1
1
1
1
1
1
1
1
1
1
1
1
1
1
1
1
1
1
1
1
1
1
1
1
1
1
1
1
1
1
1
1
1
1
1
1
1
1
1
1
1
1
1
1
1
1
1
1
1
1
1
1
1
1
1
1
1
1
1
1
1
1
1
1
1
1
1
1
1
1
1
1
1
1
1
1
1
1
1
1
1
1
1
1
1
1
1
1
1
1
1
1
1
1
1
1
1
1
1
1
1
1
1
1
1
1
1
1
1
1
1
1
1
1
1
1
1
1
1
1
1
1
1
1
1
1
1
1
1
1
1
1
1
1
1
1
1
1
1
1
1
1
1
1
1
1
1
1
1
1
1
1
1
1
1
1
1
1
1
1
1
1
1
1
1
1
1
1
1
1
1
1
1
1
1
1
1
1
1
1
1
1
1
1
1
1
1
1
1
1
1
1
1
1
1
1
1
1
1
1
1
1
1
1
1
1
1
1
1
1
1
1
1
1
1
1
1
1
1
1
1
1
1
1
1
1
1
1
1
1
1
1
1
1
1
1
1
1
1
1
1
1
1
1
1
1
1
1
1
1
1
1
1
1
1
1
1
1
1
1
1
1
1
1
1
1
1
1
1
1
1
1
1
1
1
1
1
1
1
1
1
1
1
1
1
1
1
1
1
1
1
1
1
1
1
1
1
1
1
1
1
1
1
1
1
1
1
1
1
1
1
1
1
1
1
1
1
1
1
1
1
1
1
1
1
1
1
1
1
1
1
1
1
1
1
1
1
1
1
1
1
1
1
1
1
1
1
1
1
1
1
1
1
1
1
1
1
1
1
1
1
1
1
1
1
1
1
1
1
1
1
1
1
1
1
1
1
1
1
1
1
1
1
1
1
1
1
1
1
1
1
1
1
1
1
1
1
1
1
1
1
1
1
1
1
1
1
1
1
1
1
1
1
1
1
1
1
1
1
1
1
1
1
1
1
1
1
1
1
1
1
1
1
1
1
1
1
1
1
1
1
1
1
1
1
1
1
1
1
1
1
1
1
1
1
1
1
1
1
1
1
1
1
1
1
1
1
1
1
1
1
1
1
1
1
1
1
1
1
1
1
1
1
1
1
1
1
1
1
1
1
1
1
1
1
1
1
1
1
1
1
1
1
1
1
1
1
1
1
1
1
1
1
1
1
1
1
1
1
1
1
1
1
1
1
1
1
1
1
1
1
1
1
1
1
1
1
1
1
1
1
1
1
1
1
1
1
1
1
1
1
1
1
1
1
1
1
1
1
1
1
1
1
1
1
1
1
1
1
1
1
1
1
1
1
1
1
1
1
1
1
1
1
1
1
1
1
1
1
1
1
1
1
1
1
1
1
1
1
1
1
1
1
1
1
1
1
1
1
1
1
1
1
1
1
1
1
1
1
1
1
1
1
1
1
1
1
1
1
1
1
1
1
1
1
1
1
1
1
1
1
1
1
1
1
1
1
1
1
1
1
1
1
1
1
1
1
1
1
1
1
1
1
1
1
1
1
1
1
1
1
1
1
1
1
1
1
1
1
1
1
1
1
1
1
1
1
1
1
1
1
1
1
1
1
1
1
1
1
1
1
1
1
1
1
1
1
1
1
1
1
1
1
1
1
1
1
1
1
1
1
1
1
1
1
1
1
1
1
1
1
1
1
1
1
1
1
1
1
1
1
1
1
1
1
1
1
1
1
1
1
1
1
1
1
1
1
1
1
1
1
1
1
1
1
1
1
1
1
1
1
1
1
1
1
1
1
1
1
1
1
1
1
1
1
1
1
1
1
1
1
1
1
1
1
1
1
1
1
1
1
1
1
1
1
1
1
1
1
1
1
1
1
1
1
1
1
1
1
1
1
1
1
1
1
1
1
1
1
1
1
1
1
1
1
1
1
1
1
1
1
1
1
1
1
1
1
1
1
1
1
1
1
1
1
1
1
1
1
1
1
1
1
1
1
1
1
1
1
1
1
1
1
1
1
1
1
1
1
1
1
1
1
1
1
1
1
1
1
1
1
1
1
1
1
1
1
1
1
1
1
1
1
1
1
1
1
1
1
1
1
1
1
1
1
1
1
1
1
1
1
1
1
1
1
1
1
1
1
1
1
1
1
1
1
1
1
1
1
1
1
1
1
1
1
1
1
1
1
1
1
1
1
1
1
1
1
1
1
1
1
1
1
1
1
1
1
1
1
1
1
1
1
1
1
1
1
1
1
1
1
1
1
1
1
1
1
1
1
1
1
1
1
1
1
1
1
1
1
1
1
1
1
1
1
1
1
1
1
1
1
1
1
1
1
1
1
1
1
1
1
1
1
1
1
1
1
1
1
1
1
1
1
1
1
1
1
1
1
1
1
1
1
1
1
1
1
1
1
1
1
1
1
1
1
1
1
1
1
1
1
1
1
1
1
1
1
1
1
1
1
1
1
1
1
1
1
1
1
1
1
1
1
1
1
1
1
1
1
1
1
1
1
1
1
1
1
1
1
1
1
1
1
1
1
1
1
1
1
1
1
1
1
1
1
1
1
1
1
1
1
1
1
1
1
1
1
1
1
1
1
1
1
1
1
1
1
1
1
1
1
1
1
1
1
1
1
1
1
1
1
1
1
1
1
1
1
1
1
1
1
1
1
1
1
1
1
1
1
1
1
1
1
1
1
1
1
1
1
1
1
1
1
1
1
1
1
1
1
1
1
1
1
1
1
1
1
1
1
1
1
1
1
1
1
1
1
1
1
1
1
1
1
1
1
1
1
1
1
1
1
1
1
1
1
1
1
1
1
1
1
1
1
1
1
1
1
1
1
1
1
1
1
1
1
1
1
1
1
1
1
1
1
1
1
1
1
1
1
1
1
1
1
1
1
1
1
1
1
1
1
1
1
1
1
1
1
1
1
1
1
1
1
1
1
1
1
1
1
1
1
1
1
1
1
1
1
1
1
1
1
1
1
1
1
1
1
1
1
1
1
1
1
1
1
1
1
1
1
1
1
1
1
1
1
1
1
1
1
1
1
1
1
1
1
1
1
1
1
1
1
1
1
1
1
1
1
1
1
1
1
1
1
1
1
1
1
1
1
1
1
1
1
1
1
1
1
1
1
1
1
1
1
1
1
1
1
1
1
1
1
1
1
1
1
1
1
1
1
1
1
1
1
1
1
1
1
1
1
1
1
1
1
1
1
1
1
1
1
1
1
1
1
1
1
1
1
1
1
1
1
1
1
1
1
1
1
1
1
1
1
1
1
1
1
1
1
1
1
1
1
1
1
1
1
1
1
1
1
1
1
1
1
1
1
1
1
1
1
1
1
1
1
1
1
1
1
1
1
1
1
1
1
1
1
1
1
1
1
1
1
1
1
1
1
1
1
1
1
1
1
1
1
1
1
1
1
1
1
1
1
1
1
1
1
1
1
1
1
1
1
1
1
1
1
1
1
1
1
1
1
1
1
1
1
1
1
1
1
1
1
1
1
1
1
1
1
1
1
1
1
1
1
1
1
1
1
1
1
1
1
1
1
1
1
1
1
1
1
1
1
1
1
1
1
1
1
1
1
1
1
1
1
1
1
1
1
1
1
1
1
1
1
1
1
1
1
1
1
1
1
1
1
1
1
1
1
1
1
1
1
1
1
1
1
1
1
1
1
1
1
1
1
1
1
1
1
1
1
1
1
1
1
1
1
1
1
1
1
1
1
1
1
1
1
1
1
1
1
1
1
1
1
1
1
1
1
1
1
1
1
1
1
1
1
1
1
1
1
1
1
1
1
1
1
1
1
1
1
1
1
1
1
1
1
1
1
1
1
1
1
1
1
1
1
1
1
1
1
1
1
1
1
1
1
1
1
1
1
1
1
1
1
1
1
1
1
1
1
1
1
1
1
1
1
1
1
1
1
1
1
1
1
1
1
1
1
1
1
1
1
1
1
1
1
1
1
1
1
1
1
1
1
1
1
1
1
1
1
1
1
1
1
1
1
1
1
1
1
1
1
1
1
1
1
1
1
1
1
1
1
1
1
1
1
1
1
1
1
1
1
1
1
1
1
1
1
1
1
1
1
1
1
1
1
1
1
1
1
1
1
1
1
1
1
1
1
1
1
1
1
1
1
1
1
1
1
1
1
1
1
1
1
1
1
1
1
1
1
1
1
1
1
1
1
1
1
1
1
1
1
1
1
1
1
1
1
1
1
1
1
1
1
1
1
1
1
1
1
1
1
1
1
1
1
1
1
1
1
1
1
1
1
1
1
1
1
1
1
1
1
1
1
1
1
1
1
1
1
1
1
1
1
1
1
1
1
1
1
1
1
1
1
1
1
1
1
1
1
1
1
1
1
1
1
1
1
1
1
1
1
1
1
1
1
1
1
1
1
1
1
1
1
1
1
1
1
1
1
1
1
1
1
1
1
1
1
1
1
1
1
1
1
1
1
1
1
1
1
1
1
1
1
1
1
1
1
1
1
1
1
1
1
1
1
1
1
1
1
1
1
1
1
1
1
1
1
1
1
1
1
1
1
1
1
1
1
1
1
1
1
1
1
1
1
1
1
1
1
1
1
1
1
1
1
1
1
1
1
1
1
1
1
1
1
1
1
1
1
1
1
1
1
1
1
1
1
1
1
1
1
1
1
1
1
1
1
1
1
1
1
1
1
1
1
1
1
1
1
1
1
1
1
1
1
1
1
1
1
1
1
1
1
1
1
1
1
1
1
1
1
1
1
1
1
1
1
1
1
1
1
1
1
1
1
1
1
1
1
1
1
1
1
1
1
1
1
1
1
1
1
1
1
1
1
1
1
1
1
1
1
1
1
1
1
1
1
1
1
1
1
1
1
1
1
1
1
1
1
1
1
1
1
1
1
1
1
1
1
1
1
1
1
1
1
1
1
1
1
1
1
1
1
1
1
1
1
1
1
1
1
1
1
1
1
1
1
1
1
1
1
1
1
1
1
1
1
1
1
1
1
1
1
1
1
1
1
1
1
1
1
1
1
1
1
1
1
1
1
1
1
1
1
1
1
1
1
1
1
1
1
1
1
1
1
1
1
1
1
1
1
1
1
1
1
1
1
1
1
1
1
1
1
1
1
1
1
1
1
1
1
1
1
1
1
1
1
1
1
1
1
1
1
1
1
1
1
1
1
1
1
1
1
1
1
1
1
1
1
1
1
1
1
1
1
1
1
1
1
1
1
1
1
1
1
1
1
1
1
1
1
1
1
1
1
1
1
1
1
1
1
1
1
1
1
1
1
1
1
1
1
1
1
1
1
1
1
1
1
1
1
1
1
1
1
1
1
1
1
1
1
1
1
1
1
1
1
1
1
1
1
1
1
1
1
1
1
1
1
1
1
1
1
1
1
1
1
1
1
1
1
1
1
1
1
1
1
1
1
1
1
1
1
1
1
1
1
1
1
1
1
1
1
1
1
1
1
1
1
1
1
1
1
1
1.07801
1.17861
1.28882
1.38106
1.47084
1.56084
1.61841
1.66628
1.69583
1.6911
1.66296
1.61372
1.56893
1.53702
1.52636
1.51657
1.51399
1.51687
1.52139
1.52603
1.5308
1.53374
1.53581
1.53726
1.53804
1.53894
1.54026
1.54163
1.54186
1.54164
1.54171
1.54284
1.54501
1.54679
1.54733
1.54732
1.54696
1.54594
1.54501
1.54467
1.5448
1.5451
1.54533
1.54558
1.54575
1.54586
1.54579
1.54563
1.00079
1.0055
1.02249
1.06998
1.12961
1.21366
1.30095
1.37975
1.45219
1.50461
1.53294
1.55303
1.56591
1.56273
1.55469
1.5468
1.53977
1.5368
1.53227
1.53258
1.53424
1.53695
1.53959
1.54229
1.5437
1.54471
1.54504
1.54514
1.54518
1.54499
1.54492
1.54538
1.54624
1.54701
1.54758
1.54758
1.54729
1.54672
1.54641
1.54646
1.54668
1.54707
1.54765
1.54809
1.54815
1.54814
1.54784
1.54816
1
0.999994
1
1.00004
1.0005
1.00446
1.02219
1.07383
1.18447
1.34158
1.5048
1.57856
1.62347
1.62314
1.61541
1.5998
1.57953
1.55544
1.54355
1.54377
1.54557
1.54773
1.5507
1.55429
1.55571
1.55615
1.55647
1.55646
1.55638
1.55643
1.55617
1.55574
1.5553
1.55495
1.55462
1.554
1.55313
1.55227
1.55184
1.55173
1.55179
1.5522
1.55293
1.55344
1.55346
1.55325
1.55281
1.55367
1
1
1
1
1
0.999996
1.00002
1.00003
1.00213
1.02637
1.1497
1.33272
1.50563
1.60231
1.60606
1.60402
1.59739
1.58677
1.57908
1.57282
1.56956
1.56583
1.56358
1.56376
1.56444
1.56582
1.56713
1.56823
1.56928
1.56939
1.5692
1.56868
1.5681
1.56771
1.56713
1.56617
1.56501
1.56387
1.56293
1.56253
1.56249
1.56262
1.56276
1.56265
1.56203
1.56113
1.56004
1.56077
1
1
1
1
1
1
1
1
1
0.999972
1.00068
1.01807
1.10633
1.30545
1.45722
1.58164
1.62261
1.62067
1.61396
1.60624
1.59185
1.58192
1.57691
1.57275
1.57144
1.57211
1.57308
1.57453
1.57623
1.57693
1.57702
1.57721
1.57785
1.57807
1.5779
1.57735
1.57646
1.57535
1.57439
1.5741
1.57415
1.57426
1.57416
1.57356
1.57242
1.57123
1.56962
1.57017
1
1
1
1
1
1
1
1
1
0.999999
0.999999
0.999982
1.00024
1.01172
1.0835
1.25073
1.43622
1.54098
1.60957
1.60994
1.60466
1.59652
1.59112
1.58598
1.58175
1.57934
1.57828
1.57795
1.5786
1.58052
1.58194
1.58341
1.58442
1.58443
1.58412
1.58353
1.58271
1.58183
1.58122
1.58107
1.58112
1.58117
1.58083
1.57985
1.57865
1.57758
1.57631
1.57691
1
1
1
1
1
1
1
1
1
1
1
0.999999
0.999999
0.999986
1.00018
1.00599
1.07519
1.21625
1.406
1.5072
1.5696
1.59597
1.59619
1.5952
1.59028
1.58641
1.58321
1.58017
1.57954
1.58019
1.58211
1.58516
1.58659
1.58635
1.58585
1.5852
1.58452
1.58383
1.58358
1.58345
1.58355
1.58372
1.58344
1.58274
1.58197
1.58154
1.58096
1.58136
1
1
1
1
1
1
1
1
1
1
1
1
1
0.999999
0.999999
0.99999
1.00022
1.00461
1.05166
1.19918
1.36007
1.50032
1.54153
1.564
1.57631
1.57975
1.57956
1.5765
1.57666
1.57782
1.57926
1.58083
1.58243
1.58377
1.58376
1.58324
1.58282
1.58279
1.58299
1.58365
1.58441
1.58453
1.58434
1.58393
1.58357
1.58342
1.58324
1.58327
1
1
1
1
1
1
1
1
1
1
1
1
1
1
1
0.999999
0.999999
0.999993
1.0001
1.00485
1.03871
1.17947
1.34177
1.47926
1.53984
1.55311
1.56496
1.56634
1.56827
1.57049
1.57084
1.57176
1.57334
1.57522
1.57682
1.57801
1.579
1.58006
1.58102
1.58199
1.58275
1.583
1.58309
1.58321
1.58318
1.583
1.58298
1.5829
1
1
1
1
1
1
1
1
1
1
1
1
1
1
1
1
1
1
1
0.999995
1.00007
1.00436
1.04078
1.15537
1.32942
1.45437
1.53412
1.55546
1.5603
1.56442
1.56482
1.56451
1.56527
1.56683
1.56864
1.57051
1.57252
1.57446
1.57606
1.5775
1.57838
1.57876
1.57933
1.58012
1.5805
1.58065
1.58104
1.58093
1
1
1
1
1
1
1
1
1
1
1
1
1
1
1
1
1
1
1
1
1
0.999995
1.00012
1.00298
1.04374
1.15103
1.32213
1.44165
1.52059
1.55395
1.56201
1.56244
1.5642
1.56495
1.56529
1.56641
1.56811
1.56957
1.57108
1.57265
1.57355
1.57396
1.57448
1.57507
1.57542
1.57568
1.57641
1.57636
1
1
1
1
1
1
1
1
1
1
1
1
1
1
1
1
1
1
1
1
1
0.999999
1
0.999995
1.0002
1.00319
1.03909
1.16569
1.32571
1.44995
1.50675
1.5398
1.55313
1.55746
1.55942
1.56304
1.56393
1.56435
1.56523
1.56664
1.56811
1.56906
1.56964
1.57015
1.57042
1.5707
1.57164
1.57194
1
1
1
1
1
1
1
1
1
1
1
1
1
1
1
1
1
1
1
1
1
1
1
0.999999
1
0.999996
1.0002
1.00519
1.04026
1.17917
1.33431
1.47293
1.51329
1.53043
1.54238
1.55287
1.55403
1.55514
1.55681
1.55927
1.56169
1.56323
1.56363
1.56377
1.56397
1.56456
1.56599
1.56693
1
1
1
1
1
1
1
1
1
1
1
1
1
1
1
1
1
1
1
1
1
1
1
1
1
1
1
0.999998
1.00022
1.00789
1.05143
1.19914
1.36273
1.4847
1.5373
1.54367
1.54686
1.54854
1.55014
1.55289
1.55537
1.55665
1.55765
1.55814
1.55844
1.55929
1.56073
1.56201
1
1
1
1
1
1
1
1
1
1
1
1
1
1
1
1
1
1
1
1
1
1
1
1
1
1
1
1
0.999999
1.00001
1.00043
1.01096
1.07843
1.23573
1.39902
1.49877
1.54722
1.55458
1.55428
1.55605
1.55676
1.55688
1.5567
1.5569
1.55682
1.55738
1.5585
1.55962
1
1
1
1
1
1
1
1
1
1
1
1
1
1
1
1
1
1
1
1
1
1
1
1
1
1
1
1
1
1
0.999999
1.00003
1.00113
1.01848
1.12291
1.291
1.43879
1.50794
1.54248
1.5533
1.55442
1.55716
1.55816
1.5578
1.55752
1.55777
1.55838
1.55913
1
1
1
1
1
1
1
1
1
1
1
1
1
1
1
1
1
1
1
1
1
1
1
1
1
1
1
1
1
1
1
1
0.999999
1.00009
1.0035
1.0353
1.17919
1.35901
1.49255
1.52168
1.53603
1.54856
1.55159
1.55269
1.5538
1.55521
1.55697
1.55792
1
1
1
1
1
1
1
1
1
1
1
1
1
1
1
1
1
1
1
1
1
1
1
1
1
1
1
1
1
1
1
1
1
1
1
1.00035
1.01065
1.07538
1.25869
1.42484
1.52819
1.54514
1.5484
1.5496
1.55029
1.55229
1.55534
1.55625
1
1
1
1
1
1
1
1
1
1
1
1
1
1
1
1
1
1
1
1
1
1
1
1
1
1
1
1
1
1
1
1
1
1
1
0.999999
1.00004
1.00155
1.03048
1.1481
1.35454
1.48391
1.54744
1.55857
1.55768
1.55789
1.55901
1.55884
1
1
1
1
1
1
1
1
1
1
1
1
1
1
1
1
1
1
1
1
1
1
1
1
1
1
1
1
1
1
1
1
1
1
1
1
1
1
1.00032
1.00718
1.08695
1.26348
1.44273
1.51139
1.54446
1.5585
1.55842
1.55882
1
1
1
1
1
1
1
1
1
1
1
1
1
1
1
1
1
1
1
1
1
1
1
1
1
1
1
1
1
1
1
1
1
1
1
1
1
1
1
1.00003
1.0025
1.03145
1.18356
1.38767
1.51519
1.53564
1.54446
1.54938
1
1
1
1
1
1
1
1
1
1
1
1
1
1
1
1
1
1
1
1
1
1
1
1
1
1
1
1
1
1
1
1
1
1
1
1
1
1
1
1
1
1.00045
1.01433
1.11078
1.32194
1.48243
1.5475
1.55329
1
1
1
1
1
1
1
1
1
1
1
1
1
1
1
1
1
1
1
1
1
1
1
1
1
1
1
1
1
1
1
1
1
1
1
1
1
1
1
1
1
1
1.00012
1.00504
1.06741
1.25256
1.4313
1.53192
1
1
1
1
1
1
1
1
1
1
1
1
1
1
1
1
1
1
1
1
1
1
1
1
1
1
1
1
1
1
1
1
1
1
1
1
1
1
1
1
1
1
1
1.00003
1.00182
1.03361
1.20411
1.41025
1
1
1
1
1
1
1
1
1
1
1
1
1
1
1
1
1
1
1
1
1
1
1
1
1
1
1
1
1
1
1
1
1
1
1
1
1
1
1
1
1
1
1
1
1
1.00071
1.02371
1.13291
1
1
1
1
1
1
1
1
1
1
1
1
1
1
1
1
1
1
1
1
1
1
1
1
1
1
1
1
1
1
1
1
1
1
1
1
1
1
1
1
1
1
1
1
1
1
1.00043
1.00537
1
1
1
1
1
1
1
1
1
1
1
1
1
1
1
1
1
1
1
1
1
1
1
1
1
1
1
1
1
1
1
1
1
1
1
1
1
1
1
1
1
1
1
1
1
1
1
0.999948
1
1
1
1
1
1
1
1
1
1
1
1
1
1
1
1
1
1
1
1
1
1
1
1
1
1
1
1
1
1
1
1
1
1
1
1
1
1
1
1
1
1
1
1
1
1
1
0.999983
1
1
1
1
1
1
1
1
1
1
1
1
1
1
1
1
1
1
1
1
1
1
1
1
1
1
1
1
1
1
1
1
1
1
1
1
1
1
1
1
1
1
1
1
1
1
1
0.999997
1
1
1
1
1
1
1
1
1
1
1
1
1
1
1
1
1
1
1
1
1
1
1
1
1
1
1
1
1
1
1
1
1
1
1
1
1
1
1
1
1
1
1
1
1
1
1
1
1
1
1
1
1
1
1
1
1
1
1
1
1
1
1
1
1
1
1
1
1
1
1
1
1
1
1
1
1
1
1
1
1
1
1
1
1
1
1
1
1
1
1
1
1
1
1
1
1
1
1
1
1
1
1
1
1
1
1
1
1
1
1
1
1
1
1
1
1
1
1
1
1
1
1
1
1
1
1
1
1
1
1
1
1
1
1
1
1
1
1
1
1
1
1
1
1
1
1
1
1
1
1
1
1
1
1
1
1
1
1
1
1
1
1
1
1
1
1
1
1
1
1
1
1
1
1
1
1
1
1
1
1
1
1
1
1
1
1
1
1
1
1
1
1
1
1
1
1
1
1
1
1
1
1
1
1
1
1
1
1
1
1
1
1
1
1
1
1
1
1
1
1
1
1
1
1
1
1
1
1
1
1
1
1
1
1
1
1
1
1
1
1
1
1
1
1
1
1
1
1
1
1
1
1
1
1
1
1
1
1
1
1
1
1
1
1
1
1
1
1
1
1
1
1
1
1
1
1
1
1
1
1
1
1
1
1
1
1
1
1
1
1
1
1
1
1
1
1
1
1
1
1
1
1
1
1
1
1
1
1
1
1
1
1
1
1
1
1
1
1
1
1
1
1
1
1
1
1
1
1
1
1
1
1
1
1
0.999997
1
1
1
1
1
1
1
1
1
1
1
1
1
1
1
1
1
1
1
1
1
1
1
1
1
1
1
1
1
1
1
1
1
1
1
1
1
1
1
1
1
1
1
1
1
1
1
0.999983
1
1
1
1
1
1
1
1
1
1
1
1
1
1
1
1
1
1
1
1
1
1
1
1
1
1
1
1
1
1
1
1
1
1
1
1
1
1
1
1
1
1
1
1
1
1
1
0.999947
1
1
1
1
1
1
1
1
1
1
1
1
1
1
1
1
1
1
1
1
1
1
1
1
1
1
1
1
1
1
1
1
1
1
1
1
1
1
1
1
1
1
1
1
1
1
1.00043
1.00533
1
1
1
1
1
1
1
1
1
1
1
1
1
1
1
1
1
1
1
1
1
1
1
1
1
1
1
1
1
1
1
1
1
1
1
1
1
1
1
1
1
1
1
1
1
1.00071
1.02371
1.13301
1
1
1
1
1
1
1
1
1
1
1
1
1
1
1
1
1
1
1
1
1
1
1
1
1
1
1
1
1
1
1
1
1
1
1
1
1
1
1
1
1
1
1
1.00003
1.00182
1.03363
1.20415
1.41045
1
1
1
1
1
1
1
1
1
1
1
1
1
1
1
1
1
1
1
1
1
1
1
1
1
1
1
1
1
1
1
1
1
1
1
1
1
1
1
1
1
1
1.00012
1.00504
1.06738
1.25261
1.43136
1.53197
1
1
1
1
1
1
1
1
1
1
1
1
1
1
1
1
1
1
1
1
1
1
1
1
1
1
1
1
1
1
1
1
1
1
1
1
1
1
1
1
1
1.00045
1.01434
1.11072
1.32191
1.48251
1.54749
1.5533
1
1
1
1
1
1
1
1
1
1
1
1
1
1
1
1
1
1
1
1
1
1
1
1
1
1
1
1
1
1
1
1
1
1
1
1
1
1
1
1.00003
1.0025
1.03145
1.1836
1.38751
1.51534
1.53571
1.54444
1.54933
1
1
1
1
1
1
1
1
1
1
1
1
1
1
1
1
1
1
1
1
1
1
1
1
1
1
1
1
1
1
1
1
1
1
1
1
1
1
1.00032
1.00718
1.08694
1.2635
1.4427
1.51134
1.54455
1.55851
1.55839
1.55878
1
1
1
1
1
1
1
1
1
1
1
1
1
1
1
1
1
1
1
1
1
1
1
1
1
1
1
1
1
1
1
1
1
1
1
0.999999
1.00004
1.00155
1.03048
1.14809
1.35453
1.48393
1.54743
1.55856
1.55769
1.5579
1.559
1.55881
1
1
1
1
1
1
1
1
1
1
1
1
1
1
1
1
1
1
1
1
1
1
1
1
1
1
1
1
1
1
1
1
1
1
1
1.00035
1.01065
1.07538
1.2587
1.42483
1.52819
1.54515
1.5484
1.5496
1.55029
1.55229
1.55534
1.55624
1
1
1
1
1
1
1
1
1
1
1
1
1
1
1
1
1
1
1
1
1
1
1
1
1
1
1
1
1
1
1
1
0.999999
1.00009
1.0035
1.0353
1.17919
1.35901
1.49255
1.52167
1.53604
1.54856
1.55159
1.55269
1.55379
1.55521
1.55697
1.55791
1
1
1
1
1
1
1
1
1
1
1
1
1
1
1
1
1
1
1
1
1
1
1
1
1
1
1
1
1
1
0.999999
1.00003
1.00113
1.01848
1.12291
1.291
1.43878
1.50795
1.54248
1.5533
1.55443
1.55716
1.55816
1.5578
1.55752
1.55777
1.55838
1.55913
1
1
1
1
1
1
1
1
1
1
1
1
1
1
1
1
1
1
1
1
1
1
1
1
1
1
1
1
0.999999
1.00001
1.00043
1.01096
1.07843
1.23573
1.39902
1.49877
1.54722
1.55458
1.55429
1.55605
1.55676
1.55688
1.55669
1.5569
1.55682
1.55738
1.5585
1.55962
1
1
1
1
1
1
1
1
1
1
1
1
1
1
1
1
1
1
1
1
1
1
1
1
1
1
1
0.999998
1.00022
1.00789
1.05143
1.19914
1.36273
1.4847
1.5373
1.54367
1.54686
1.54854
1.55014
1.55289
1.55537
1.55665
1.55765
1.55814
1.55844
1.55929
1.56073
1.56201
1
1
1
1
1
1
1
1
1
1
1
1
1
1
1
1
1
1
1
1
1
1
1
0.999999
1
0.999996
1.0002
1.00519
1.04026
1.17917
1.33431
1.47293
1.51329
1.53043
1.54238
1.55287
1.55403
1.55514
1.55681
1.55927
1.56169
1.56323
1.56363
1.56377
1.56397
1.56456
1.56599
1.56693
1
1
1
1
1
1
1
1
1
1
1
1
1
1
1
1
1
1
1
1
1
0.999999
1
0.999995
1.0002
1.00319
1.03909
1.16569
1.32571
1.44995
1.50675
1.5398
1.55313
1.55746
1.55942
1.56304
1.56393
1.56435
1.56523
1.56664
1.56811
1.56906
1.56964
1.57015
1.57042
1.5707
1.57163
1.57194
1
1
1
1
1
1
1
1
1
1
1
1
1
1
1
1
1
1
1
1
1
0.999995
1.00012
1.00298
1.04374
1.15103
1.32213
1.44165
1.52059
1.55395
1.56201
1.56244
1.5642
1.56495
1.56529
1.56641
1.56811
1.56957
1.57108
1.57265
1.57355
1.57396
1.57448
1.57507
1.57542
1.57568
1.57641
1.57636
1
1
1
1
1
1
1
1
1
1
1
1
1
1
1
1
1
1
1
0.999995
1.00007
1.00436
1.04078
1.15537
1.32942
1.45437
1.53412
1.55546
1.5603
1.56442
1.56482
1.56451
1.56527
1.56683
1.56864
1.57051
1.57252
1.57446
1.57606
1.5775
1.57838
1.57876
1.57933
1.58012
1.5805
1.58065
1.58104
1.58093
1
1
1
1
1
1
1
1
1
1
1
1
1
1
1
0.999999
0.999999
0.999993
1.0001
1.00485
1.03871
1.17947
1.34177
1.47926
1.53984
1.55311
1.56496
1.56634
1.56827
1.57049
1.57084
1.57176
1.57334
1.57522
1.57682
1.57801
1.579
1.58006
1.58102
1.58199
1.58275
1.583
1.58309
1.58321
1.58318
1.583
1.58298
1.5829
1
1
1
1
1
1
1
1
1
1
1
1
1
0.999999
0.999999
0.99999
1.00022
1.00461
1.05166
1.19918
1.36007
1.50032
1.54153
1.564
1.57631
1.57975
1.57956
1.5765
1.57666
1.57782
1.57926
1.58083
1.58243
1.58377
1.58376
1.58324
1.58282
1.58279
1.58299
1.58365
1.58441
1.58453
1.58434
1.58393
1.58357
1.58342
1.58324
1.58327
1
1
1
1
1
1
1
1
1
1
1
0.999999
0.999999
0.999986
1.00018
1.00599
1.07519
1.21625
1.406
1.5072
1.5696
1.59597
1.59619
1.5952
1.59028
1.58641
1.58321
1.58017
1.57954
1.58019
1.58211
1.58516
1.58659
1.58635
1.58585
1.5852
1.58452
1.58383
1.58358
1.58345
1.58355
1.58372
1.58344
1.58274
1.58197
1.58154
1.58096
1.58136
1
1
1
1
1
1
1
1
1
0.999999
0.999999
0.999982
1.00024
1.01172
1.0835
1.25073
1.43622
1.54098
1.60957
1.60994
1.60466
1.59652
1.59112
1.58598
1.58175
1.57934
1.57828
1.57795
1.5786
1.58052
1.58194
1.58341
1.58442
1.58443
1.58412
1.58353
1.58271
1.58183
1.58122
1.58107
1.58112
1.58117
1.58083
1.57985
1.57865
1.57758
1.57631
1.57691
1
1
1
1
1
1
1
1
1
0.999972
1.00068
1.01807
1.10633
1.30545
1.45722
1.58163
1.62261
1.62067
1.61396
1.60624
1.59185
1.58192
1.57691
1.57275
1.57144
1.57211
1.57308
1.57453
1.57623
1.57693
1.57702
1.57721
1.57785
1.57807
1.5779
1.57735
1.57646
1.57535
1.57439
1.5741
1.57415
1.57426
1.57416
1.57356
1.57242
1.57123
1.56962
1.57017
1
1
1
1
1
0.999996
1.00002
1.00003
1.00213
1.02637
1.1497
1.33272
1.50563
1.60231
1.60606
1.60402
1.5974
1.58677
1.57908
1.57282
1.56956
1.56583
1.56358
1.56376
1.56444
1.56582
1.56713
1.56823
1.56928
1.56939
1.5692
1.56868
1.5681
1.56771
1.56713
1.56617
1.56501
1.56387
1.56293
1.56253
1.56249
1.56262
1.56276
1.56265
1.56203
1.56113
1.56004
1.56077
1
0.999994
1
1.00004
1.0005
1.00446
1.02219
1.07383
1.18447
1.34158
1.5048
1.57856
1.62347
1.62314
1.61541
1.5998
1.57953
1.55544
1.54355
1.54377
1.54557
1.54773
1.5507
1.55429
1.55571
1.55615
1.55647
1.55646
1.55638
1.55643
1.55617
1.55574
1.5553
1.55495
1.55462
1.554
1.55313
1.55227
1.55184
1.55173
1.55179
1.5522
1.55293
1.55344
1.55346
1.55325
1.55281
1.55367
1.00079
1.0055
1.02249
1.06998
1.12961
1.21366
1.30095
1.37975
1.45219
1.50461
1.53294
1.55303
1.56591
1.56273
1.55469
1.5468
1.53977
1.5368
1.53227
1.53258
1.53424
1.53695
1.53959
1.54229
1.5437
1.54471
1.54504
1.54514
1.54518
1.54499
1.54492
1.54538
1.54624
1.54701
1.54758
1.54758
1.54729
1.54672
1.54641
1.54646
1.54668
1.54707
1.54765
1.54809
1.54815
1.54814
1.54784
1.54816
1.07801
1.17861
1.28882
1.38106
1.47084
1.56084
1.61841
1.66628
1.69583
1.6911
1.66296
1.61372
1.56893
1.53702
1.52636
1.51657
1.51399
1.51687
1.52139
1.52603
1.5308
1.53374
1.53581
1.53726
1.53804
1.53894
1.54026
1.54163
1.54186
1.54164
1.54171
1.54284
1.54501
1.54679
1.54733
1.54732
1.54696
1.54594
1.54501
1.54467
1.5448
1.5451
1.54533
1.54558
1.54575
1.54586
1.54579
1.54563
1.40184
1.24537
1.0955
0.992596
1.00613
1.00682
1.00309
1.01962
1.05588
1.07216
1.07337
1.0822
1.10181
1.11495
1.11597
1.11786
1.12115
1.11922
1.11705
1.11812
1.11858
1.11682
1.11481
1.11513
1.11494
1.11382
1.1096
1.10609
1.10594
1.1058
1.10554
1.10516
1.10461
1.10448
1.1042
1.10349
1.10336
1.10347
1.10417
1.10507
1.10507
1.10492
1.1045
1.10355
1.10297
1.10272
1.10203
1.10232
1.10527
1.15892
1.35085
1.58829
1.81437
2.04792
2.24443
2.23988
2.18042
2.1016
2.07953
2.0799
2.07342
2.06007
2.04773
2.03779
2.02531
2.00832
1.99333
1.98174
1.97087
1.95865
1.94303
1.92412
1.9105
1.90285
1.89782
1.89548
1.89061
1.88371
1.8716
1.84781
1.81963
1.80639
1.8004
1.79657
1.79866
1.79964
1.79463
1.78731
1.77039
1.74506
1.73198
1.72674
1.72245
1.71796
1.71223
1.7039
1.68866
1.66917
1.66125
1.65795
1.65573
1.65496
1.65184
1.64724
1.63771
1.61646
1.59712
1.59196
1.58955
1.58745
1.58666
1.58528
1.58226
1.57755
1.56761
1.55155
1.5381
1.53081
1.52556
1.52057
1.51558
1.5106
1.50542
1.50005
1.4947
1.48933
1.48323
1.47477
1.46326
1.45527
1.45212
1.44971
1.44747
1.44545
1.44321
1.43986
1.43369
1.42171
1.40852
1.40113
1.39748
1.39468
1.39298
1.39198
1.39651
1.41785
1.47956
1.58899
1.69804
1.78097
1.85208
1.90682
1.92476
1.91625
1.89703
1.87723
1.86787
1.86394
1.85924
1.85445
1.84975
1.84229
1.82992
1.82033
1.81565
1.81327
1.81119
1.80898
1.80771
1.80478
1.80087
1.7975
1.79307
1.78346
1.76817
1.75888
1.75571
1.75373
1.75278
1.75401
1.75345
1.75069
1.74692
1.73934
1.72603
1.71803
1.71506
1.71255
1.71013
1.70744
1.70454
1.6967
1.49943
1.42098
1.33849
1.23068
1.17707
1.14649
1.09809
1.08494
1.08221
1.06631
1.05377
1.05432
1.06348
1.0715
1.07555
1.07971
1.08796
1.0893
1.09036
1.09332
1.09973
1.10375
1.10508
1.10568
1.10551
1.1044
1.10135
1.10035
1.10068
1.10064
1.10053
1.10061
1.10067
1.10085
1.1007
1.10023
1.09986
1.09982
1.10003
1.10014
1.10013
1.10009
1.09977
1.0991
1.09852
1.09768
1.09816
1.10255
1.1498
1.34555
1.52764
1.5745
1.66408
1.77265
1.95919
2.08835
2.13562
2.12378
2.10439
2.08859
2.07399
2.06379
2.05535
2.04471
2.02978
2.01169
1.99395
1.98363
1.9745
1.96311
1.94912
1.93333
1.9189
1.9069
1.89863
1.89293
1.88805
1.88123
1.87059
1.85258
1.83185
1.81686
1.80798
1.80295
1.79905
1.7957
1.79064
1.78279
1.77012
1.752
1.73799
1.72934
1.72272
1.71756
1.71258
1.70635
1.69514
1.67779
1.66488
1.66007
1.65665
1.65323
1.65021
1.64536
1.63729
1.62191
1.60353
1.59427
1.59123
1.58918
1.58664
1.58362
1.58039
1.57651
1.56957
1.55626
1.54397
1.5369
1.53163
1.52654
1.52124
1.51588
1.51048
1.50487
1.4993
1.49347
1.48688
1.47862
1.46868
1.46146
1.45747
1.45451
1.45181
1.44932
1.44665
1.4429
1.43635
1.42465
1.41067
1.40315
1.39948
1.39724
1.39791
1.40573
1.43958
1.49881
1.56977
1.61032
1.65342
1.71181
1.76911
1.81611
1.85086
1.87988
1.88781
1.88346
1.87766
1.8714
1.86413
1.85775
1.85277
1.84535
1.83353
1.82347
1.81807
1.81533
1.81337
1.81104
1.80782
1.80422
1.8008
1.79744
1.79276
1.78451
1.77326
1.764
1.75855
1.75582
1.75401
1.75257
1.75186
1.74968
1.74612
1.74007
1.72933
1.72092
1.71759
1.71479
1.71207
1.70924
1.70622
1.69867
1.53881
1.49638
1.43631
1.35878
1.28516
1.23346
1.17299
1.11877
1.09797
1.07616
1.04767
1.0455
1.04902
1.04877
1.04879
1.05122
1.05579
1.05935
1.06203
1.06713
1.07678
1.08321
1.0851
1.08615
1.0874
1.08763
1.08745
1.08811
1.08915
1.09
1.09098
1.09116
1.09106
1.09068
1.08991
1.0897
1.08963
1.08974
1.08995
1.09
1.0902
1.0902
1.08978
1.08958
1.08941
1.09072
1.10227
1.16059
1.35216
1.54178
1.59546
1.5952
1.59971
1.61607
1.70301
1.91072
2.11149
2.16268
2.1418
2.09462
2.06954
2.06681
2.06287
2.05032
2.03566
2.02239
2.00663
1.98997
1.97488
1.96192
1.9511
1.9423
1.93161
1.91924
1.90633
1.8953
1.88624
1.87689
1.86502
1.85226
1.84307
1.83481
1.82468
1.81325
1.80422
1.79606
1.78712
1.77655
1.76451
1.75412
1.74547
1.73665
1.72767
1.71938
1.71197
1.70422
1.69538
1.68442
1.67248
1.66404
1.65976
1.65542
1.64965
1.64205
1.63241
1.6222
1.61258
1.60228
1.59407
1.59058
1.58804
1.58468
1.58001
1.57268
1.56268
1.5517
1.54269
1.53604
1.5301
1.52469
1.51949
1.51368
1.50752
1.50102
1.49475
1.48924
1.48362
1.47704
1.47004
1.46232
1.45596
1.4519
1.44866
1.44568
1.44253
1.43804
1.43084
1.42078
1.41329
1.40772
1.40512
1.40689
1.42139
1.46727
1.54025
1.6007
1.63794
1.64036
1.64007
1.65011
1.67936
1.73003
1.792
1.85527
1.88054
1.88918
1.88683
1.88022
1.86908
1.86074
1.85402
1.84559
1.83451
1.82528
1.82271
1.82122
1.81912
1.81541
1.81015
1.80529
1.80077
1.79614
1.79018
1.78268
1.77663
1.77221
1.76697
1.76089
1.75706
1.7544
1.75119
1.74747
1.74339
1.73848
1.73236
1.72525
1.7185
1.7135
1.70989
1.70672
1.70373
1.69714
1.55602
1.53738
1.49895
1.4426
1.37642
1.32047
1.26293
1.20058
1.17198
1.14483
1.10009
1.08362
1.07695
1.06131
1.04926
1.04995
1.04879
1.04422
1.0442
1.04779
1.05626
1.06289
1.06558
1.0676
1.07105
1.07319
1.07507
1.07697
1.07892
1.08082
1.08208
1.08243
1.0823
1.08195
1.08157
1.08166
1.08238
1.08318
1.0832
1.08299
1.08271
1.0818
1.08059
1.08068
1.08227
1.10635
1.21819
1.36992
1.54092
1.61266
1.61538
1.61194
1.60634
1.60145
1.60309
1.65564
1.85031
2.08874
2.12101
2.09783
2.08812
2.07903
2.07005
2.05679
2.04688
2.03863
2.02413
2.00097
1.98099
1.9694
1.96131
1.95378
1.94612
1.93581
1.92055
1.90085
1.8839
1.87261
1.86556
1.86113
1.85847
1.8525
1.84266
1.82851
1.81001
1.79357
1.78108
1.77247
1.76668
1.76253
1.75733
1.74954
1.73833
1.72437
1.71277
1.70585
1.70096
1.69489
1.68578
1.67485
1.66417
1.6555
1.64728
1.63916
1.6325
1.62793
1.62294
1.61509
1.60518
1.59555
1.59021
1.58592
1.57934
1.56904
1.55814
1.55043
1.54465
1.53896
1.53232
1.52631
1.52238
1.518
1.51135
1.50269
1.49378
1.48803
1.4844
1.48089
1.47581
1.46808
1.45935
1.4538
1.45039
1.44725
1.44317
1.43715
1.42935
1.42114
1.4143
1.41266
1.41687
1.4416
1.50319
1.57955
1.63766
1.65998
1.66033
1.65262
1.63948
1.6386
1.64159
1.65838
1.69944
1.76481
1.82854
1.86974
1.87735
1.87469
1.87267
1.86776
1.85885
1.84841
1.83864
1.83509
1.83342
1.83117
1.82743
1.82249
1.81655
1.80913
1.80181
1.79498
1.78948
1.78623
1.78441
1.7818
1.77748
1.77097
1.763
1.75623
1.75152
1.74705
1.7428
1.73948
1.7362
1.73046
1.72268
1.71668
1.71247
1.70838
1.70481
1.6988
1.56639
1.55978
1.54019
1.50196
1.44733
1.39683
1.33948
1.27797
1.24206
1.21238
1.16395
1.13169
1.11295
1.09007
1.06091
1.05588
1.05266
1.04477
1.04437
1.04762
1.05254
1.05313
1.05416
1.05515
1.05803
1.06225
1.06578
1.06952
1.07277
1.07532
1.07674
1.07747
1.07728
1.07678
1.07714
1.07861
1.08035
1.08096
1.08093
1.08071
1.07996
1.07823
1.07683
1.07753
1.10031
1.26784
1.45252
1.55407
1.61027
1.6261
1.62474
1.62067
1.61219
1.60736
1.60239
1.59814
1.62228
1.77589
1.99952
2.09925
2.10732
2.09135
2.07005
2.05979
2.05502
2.04599
2.03133
2.00878
1.98855
1.97881
1.97085
1.96233
1.95312
1.94314
1.92811
1.90426
1.88455
1.87632
1.87108
1.86699
1.86411
1.85848
1.8508
1.83726
1.81253
1.7903
1.7809
1.77532
1.77052
1.76542
1.7601
1.75377
1.74433
1.7301
1.71629
1.7078
1.70163
1.69665
1.69094
1.68184
1.66757
1.65417
1.64589
1.64022
1.63581
1.63118
1.62608
1.62152
1.61541
1.60601
1.59432
1.58431
1.57591
1.56799
1.5604
1.55413
1.54913
1.54432
1.53902
1.5321
1.52361
1.51618
1.50888
1.50104
1.49468
1.48975
1.48488
1.47964
1.47431
1.46792
1.46038
1.45401
1.45047
1.44757
1.44417
1.43835
1.43024
1.42219
1.42069
1.42991
1.473
1.54434
1.61976
1.66095
1.67042
1.67135
1.66759
1.65786
1.64712
1.64226
1.64235
1.64606
1.6544
1.67753
1.72916
1.79288
1.85117
1.86938
1.87534
1.87104
1.86007
1.85122
1.84667
1.8441
1.84112
1.83705
1.83273
1.82846
1.82145
1.81075
1.80055
1.79456
1.79194
1.79103
1.79012
1.78775
1.78429
1.77913
1.77084
1.76084
1.75341
1.74842
1.74387
1.73918
1.73498
1.73171
1.72837
1.72329
1.71726
1.71185
1.70763
1.70034
1.57444
1.57026
1.56217
1.54179
1.50239
1.45831
1.40958
1.35329
1.31137
1.27486
1.22866
1.19379
1.17103
1.14521
1.10771
1.09727
1.08885
1.07261
1.06292
1.06394
1.06185
1.05607
1.0525
1.05085
1.05103
1.05264
1.05673
1.06302
1.06939
1.07252
1.07443
1.07581
1.07587
1.07574
1.07649
1.07895
1.08037
1.08091
1.08128
1.08104
1.07978
1.07797
1.07926
1.10125
1.25631
1.49989
1.58672
1.62297
1.63656
1.62928
1.62654
1.62605
1.61693
1.60593
1.60135
1.59687
1.59066
1.60006
1.69602
1.90412
2.04923
2.06636
2.06807
2.06744
2.06295
2.04915
2.03163
2.01191
1.99277
1.98261
1.97448
1.96623
1.95723
1.94757
1.93377
1.91047
1.88888
1.88093
1.8755
1.87117
1.86793
1.86151
1.85255
1.83957
1.81645
1.79275
1.78324
1.77796
1.77291
1.76903
1.76485
1.75965
1.75111
1.73422
1.7172
1.70957
1.7047
1.70054
1.69597
1.68756
1.67085
1.65242
1.64504
1.64112
1.638
1.63656
1.63458
1.63073
1.62524
1.61367
1.5933
1.57838
1.57222
1.56834
1.5657
1.56224
1.55829
1.55418
1.54932
1.54159
1.52894
1.51641
1.50877
1.50332
1.49828
1.49313
1.48753
1.48261
1.47728
1.47016
1.46287
1.45716
1.45214
1.44703
1.44252
1.43786
1.43246
1.43302
1.45102
1.50743
1.58822
1.64018
1.67468
1.68795
1.68868
1.6842
1.67487
1.66687
1.66138
1.65559
1.6499
1.64659
1.64454
1.64557
1.65515
1.68723
1.74759
1.81127
1.85106
1.85749
1.85662
1.85738
1.8567
1.85414
1.84922
1.84378
1.83908
1.83352
1.82297
1.80848
1.79953
1.79579
1.79356
1.79289
1.79472
1.79394
1.7908
1.78615
1.77836
1.76683
1.75678
1.75045
1.74562
1.74107
1.73683
1.73295
1.72928
1.72547
1.72069
1.71587
1.71185
1.70443
1.58024
1.5774
1.57377
1.56462
1.54207
1.50937
1.46492
1.41635
1.37629
1.33647
1.28878
1.25471
1.22623
1.19637
1.1615
1.14442
1.13001
1.10617
1.08546
1.08111
1.07346
1.06315
1.05875
1.05733
1.05516
1.0556
1.05767
1.06197
1.06535
1.06688
1.06854
1.07083
1.07283
1.07506
1.07791
1.08087
1.08185
1.08231
1.08288
1.08276
1.081
1.08541
1.12902
1.271
1.51222
1.60916
1.63267
1.63991
1.64389
1.6354
1.62486
1.6218
1.61787
1.6041
1.59488
1.5905
1.58657
1.57868
1.5794
1.62686
1.78453
1.96422
2.04
2.05978
2.05613
2.04204
2.02697
2.01183
1.9944
1.98066
1.97155
1.96313