/*--------------------------------*- C++ -*----------------------------------*\
  =========                 |
  \\      /  F ield         | OpenFOAM: The Open Source CFD Toolbox
   \\    /   O peration     | Website:  https://openfoam.org
    \\  /    A nd           | Version:  7
     \\/     M anipulation  |
\*---------------------------------------------------------------------------*/
FoamFile
{
    version     2.0;
    format      ascii;
    class       volVectorField;
    location    "2.4";
    object      U;
}
// * * * * * * * * * * * * * * * * * * * * * * * * * * * * * * * * * * * * * //

dimensions      [0 1 -1 0 0 0 0];

internalField   nonuniform List<vector> 
18432
(
(3 5.40318e-17 0)
(3 -1.03073e-16 0)
(3 -2.90069e-16 0)
(3 -4.85297e-16 0)
(3 -7.07325e-16 0)
(3 -4.96767e-16 0)
(3 -3.86062e-16 0)
(3 -1.31669e-16 0)
(3 -2.25741e-16 0)
(3 -1.10873e-16 0)
(3 9.13454e-17 0)
(3 -6.83893e-16 0)
(3 -1.02606e-15 0)
(3 -1.89056e-15 0)
(3 -2.75072e-15 0)
(3 -3.38026e-15 0)
(3 -1.63666e-15 0)
(3 -1.15245e-15 0)
(3 -9.69802e-16 0)
(3 -1.13266e-16 0)
(3 5.63725e-16 0)
(3 -2.81872e-17 0)
(3 -1.0273e-15 0)
(3 -1.26386e-15 0)
(3 -9.50517e-16 0)
(3 -9.51415e-16 0)
(3 -9.45054e-16 0)
(3 -2.15499e-16 0)
(3 3.0775e-16 0)
(3 5.36404e-16 0)
(3 6.69065e-16 0)
(3 2.81601e-16 0)
(3 8.73268e-17 0)
(3 1.27298e-16 0)
(3 2.31128e-16 0)
(3 1.77872e-16 0)
(3 1.67015e-16 0)
(3 1.83639e-16 0)
(3 6.39843e-16 0)
(3 1.94451e-15 0)
(3 1.77173e-15 0)
(3 9.29562e-16 0)
(3 6.96914e-16 0)
(3 1.79947e-15 0)
(3 1.94746e-15 0)
(3 1.04443e-15 0)
(3 -5.25571e-16 0)
(3 -6.65927e-16 0)
(3 8.13502e-17 0)
(3 -4.53087e-16 0)
(3 -6.1954e-16 0)
(3 -5.08524e-16 0)
(3 -7.56845e-16 0)
(3 -8.02042e-16 0)
(3 -8.39726e-16 0)
(3 -7.13872e-16 0)
(3 -5.68203e-16 0)
(3 -3.61106e-16 0)
(3 -1.15436e-16 0)
(3 -1.74408e-16 0)
(3 -3.18794e-16 0)
(3 -1.32785e-15 0)
(3 -3.13482e-15 0)
(3 -4.77101e-15 0)
(3 -3.13266e-15 0)
(3 4.69084e-16 0)
(3 1.13689e-15 0)
(3 1.98053e-15 0)
(3 1.72945e-15 0)
(3 7.49753e-16 0)
(3 3.14672e-16 0)
(3 -4.95724e-16 0)
(3 -1.91378e-15 0)
(3 -1.30644e-15 0)
(3 -8.71259e-16 0)
(3 -4.17324e-16 0)
(3 -6.49975e-16 0)
(3 -1.93642e-16 0)
(3 9.67999e-17 0)
(3 5.29096e-16 0)
(3 1.25108e-15 0)
(3 9.52954e-16 0)
(3 1.45228e-16 0)
(3 -1.05716e-15 0)
(3 -5.32615e-16 0)
(3 4.04787e-16 0)
(3 2.75631e-15 0)
(3 3.27598e-15 0)
(3 3.36527e-15 0)
(3 1.94109e-15 0)
(3 7.73192e-16 0)
(3 1.14614e-15 0)
(3 1.13477e-15 0)
(3 2.50163e-16 0)
(3 1.34584e-16 0)
(3 -8.74044e-17 0)
(3 -8.14588e-18 0)
(3 -2.26141e-17 0)
(3 7.30137e-17 0)
(3 -3.40092e-17 0)
(3 1.4391e-16 0)
(3 -1.16143e-16 0)
(3 -1.34808e-16 0)
(3 -9.28463e-17 0)
(3 -1.96939e-17 0)
(3 -2.19218e-16 0)
(3 1.67881e-16 0)
(3 -3.3038e-18 0)
(3 -3.59763e-16 0)
(3 -8.73565e-16 0)
(3 -1.70948e-15 0)
(3 -2.10342e-15 0)
(3 -2.23546e-15 0)
(3 -8.48709e-16 0)
(3 1.32969e-15 0)
(3 2.44654e-15 0)
(3 1.92936e-15 0)
(3 1.7973e-15 0)
(3 2.25333e-15 0)
(3 1.72472e-15 0)
(3 1.25772e-15 0)
(3 1.20412e-15 0)
(3 6.16691e-16 0)
(3 2.08419e-16 0)
(3 -5.24222e-16 0)
(3 -6.59934e-16 0)
(3 6.56229e-16 0)
(3 8.47178e-16 0)
(3 -4.25608e-17 0)
(3 -1.83268e-15 0)
(3 -2.06004e-15 0)
(3 -1.79003e-15 0)
(3 -4.57633e-16 0)
(3 1.17172e-15 0)
(3 1.96969e-15 0)
(3 2.66546e-15 0)
(3 2.66197e-15 0)
(3 1.79822e-15 0)
(3 1.34709e-15 0)
(3 1.42323e-15 0)
(3 3.50377e-16 0)
(3 1.69614e-15 0)
(3 3.17813e-15 0)
(3 3.45337e-15 0)
(3 -4.0602e-17 0)
(3 -7.43318e-17 0)
(3 -8.45301e-17 0)
(3 -2.10405e-16 0)
(3 -1.29186e-16 0)
(3 4.78155e-17 0)
(3 2.15748e-16 0)
(3 4.42196e-16 0)
(3 2.62096e-16 0)
(3 1.8256e-16 0)
(3 3.64205e-16 0)
(3 -1.42916e-16 0)
(3 -7.34424e-16 0)
(3 -7.90114e-16 0)
(3 -7.48237e-16 0)
(3 -1.10762e-15 0)
(3 -9.35374e-16 0)
(3 -8.78953e-16 0)
(3 -8.80892e-16 0)
(3 -8.51096e-16 0)
(3 -4.54303e-16 0)
(3 7.02258e-17 0)
(3 3.84611e-16 0)
(3 8.87303e-16 0)
(3 1.42632e-15 0)
(3 1.00081e-15 0)
(3 3.78366e-16 0)
(3 -3.78534e-16 0)
(3 -5.77123e-16 0)
(3 -9.27507e-17 0)
(3 3.44774e-16 0)
(3 -8.28933e-16 0)
(3 -1.41444e-15 0)
(3 -1.32662e-15 0)
(3 -7.5063e-16 0)
(3 -2.30995e-16 0)
(3 6.48894e-16 0)
(3 1.0833e-15 0)
(3 7.41287e-16 0)
(3 1.16504e-15 0)
(3 1.52574e-15 0)
(3 1.08316e-15 0)
(3 1.02393e-15 0)
(3 9.0388e-16 0)
(3 4.29645e-16 0)
(3 2.13116e-16 0)
(3 1.0388e-15 0)
(3 2.28984e-15 0)
(3 -6.09317e-17 0)
(3 -1.93089e-16 0)
(3 1.2483e-17 0)
(3 4.76636e-17 0)
(3 -3.48403e-16 0)
(3 -1.64965e-16 0)
(3 -2.97457e-16 0)
(3 -4.1183e-16 0)
(3 -1.74043e-16 0)
(3 3.20947e-16 0)
(3 4.48069e-16 0)
(3 7.23883e-16 0)
(3 9.26992e-16 0)
(3 9.71283e-16 0)
(3 6.67957e-16 0)
(3 4.10193e-16 0)
(3 4.08318e-16 0)
(3 5.23489e-17 0)
(3 -9.62338e-16 0)
(3 -1.87344e-15 0)
(3 -1.73736e-15 0)
(3 -1.25697e-15 0)
(3 -9.93601e-16 0)
(3 -4.54194e-16 0)
(3 -3.82319e-18 0)
(3 -4.01411e-16 0)
(3 -3.54489e-16 0)
(3 -1.83588e-16 0)
(3 2.20866e-16 0)
(3 -1.15302e-15 0)
(3 -2.83159e-15 0)
(3 -3.13717e-15 0)
(3 -2.4252e-15 0)
(3 -2.13933e-16 0)
(3 7.38456e-16 0)
(3 5.89685e-16 0)
(3 1.26263e-15 0)
(3 1.09602e-15 0)
(3 1.25095e-15 0)
(3 5.98646e-16 0)
(3 1.26852e-15 0)
(3 1.22225e-15 0)
(3 -2.44019e-16 0)
(3 -1.28871e-15 0)
(3 5.20352e-17 0)
(3 1.00208e-15 0)
(3 1.08025e-15 0)
(3 1.36577e-15 0)
(3 -1.18055e-17 0)
(3 6.38692e-16 0)
(3 1.82091e-16 0)
(3 -1.05876e-16 0)
(3 7.74712e-17 0)
(3 3.61643e-17 0)
(3 2.1877e-17 0)
(3 -5.89018e-16 0)
(3 -6.94025e-16 0)
(3 -7.00101e-16 0)
(3 -7.44054e-16 0)
(3 -6.72985e-16 0)
(3 4.22353e-17 0)
(3 4.78188e-16 0)
(3 6.93482e-16 0)
(3 1.38378e-15 0)
(3 1.39999e-15 0)
(3 1.56788e-15 0)
(3 1.42323e-15 0)
(3 2.94323e-16 0)
(3 -6.13106e-16 0)
(3 -7.21483e-16 0)
(3 -7.1837e-16 0)
(3 -4.26205e-16 0)
(3 -4.62943e-16 0)
(3 -4.08136e-16 0)
(3 -1.82449e-16 0)
(3 -4.93812e-16 0)
(3 -5.16983e-16 0)
(3 -2.48396e-15 0)
(3 -3.77362e-15 0)
(3 -3.49587e-15 0)
(3 -2.41979e-15 0)
(3 -1.33491e-15 0)
(3 9.86532e-16 0)
(3 1.82358e-15 0)
(3 1.99892e-15 0)
(3 1.55891e-15 0)
(3 1.7073e-15 0)
(3 1.47107e-15 0)
(3 1.34367e-15 0)
(3 1.2601e-15 0)
(3 7.45177e-16 0)
(3 -1.62115e-16 0)
(3 -7.08245e-16 0)
(3 -4.72236e-16 0)
(3 4.93652e-17 0)
(3 -2.17708e-16 0)
(3 8.60381e-17 0)
(3 2.55549e-16 0)
(3 -1.3784e-16 0)
(3 -1.90914e-16 0)
(3 -2.05658e-17 0)
(3 -8.33098e-17 0)
(3 -4.67162e-18 0)
(3 -2.25192e-16 0)
(3 -9.30723e-16 0)
(3 -1.00567e-15 0)
(3 -1.16306e-15 0)
(3 -1.44853e-15 0)
(3 -1.07207e-15 0)
(3 -6.47257e-16 0)
(3 2.99245e-17 0)
(3 3.59398e-16 0)
(3 -2.69995e-17 0)
(3 -1.27943e-16 0)
(3 -1.83612e-16 0)
(3 -1.71162e-16 0)
(3 -4.83584e-16 0)
(3 -6.62516e-16 0)
(3 -3.99185e-16 0)
(3 -5.98441e-16 0)
(3 -7.83454e-16 0)
(3 -1.06895e-15 0)
(3 -1.77963e-15 0)
(3 -2.50839e-15 0)
(3 -3.32596e-15 0)
(3 -2.60878e-15 0)
(3 -1.27987e-15 0)
(3 -1.7119e-16 0)
(3 7.16996e-16 0)
(3 5.66608e-16 0)
(3 7.64364e-17 0)
(3 3.25333e-16 0)
(3 1.40599e-16 0)
(3 6.331e-16 0)
(3 6.52462e-16 0)
(3 1.71708e-15 0)
(3 2.06998e-15 0)
(3 1.21858e-15 0)
(3 1.36998e-16 0)
(3 -8.8858e-16 0)
(3 -1.20054e-15 0)
(3 -1.59563e-15 0)
(3 -1.47137e-15 0)
(3 -1.94079e-15 0)
(3 4.06044e-17 0)
(3 -4.40446e-16 0)
(3 -1.64817e-16 0)
(3 -4.12611e-18 0)
(3 -1.02077e-16 0)
(3 -2.00134e-16 0)
(3 -2.62362e-16 0)
(3 2.3871e-16 0)
(3 5.51595e-16 0)
(3 7.18641e-16 0)
(3 6.67196e-16 0)
(3 6.953e-16 0)
(3 6.51249e-16 0)
(3 6.49144e-16 0)
(3 8.83017e-16 0)
(3 7.85244e-16 0)
(3 6.58638e-16 0)
(3 -3.33945e-17 0)
(3 -1.9711e-16 0)
(3 2.08014e-16 0)
(3 3.19414e-16 0)
(3 2.91299e-16 0)
(3 -2.40579e-16 0)
(3 -8.75691e-16 0)
(3 -9.48025e-16 0)
(3 -1.46986e-15 0)
(3 -1.97388e-15 0)
(3 -1.60193e-15 0)
(3 -1.3356e-15 0)
(3 -8.29222e-16 0)
(3 -3.43355e-16 0)
(3 1.12282e-15 0)
(3 1.19546e-15 0)
(3 5.55396e-17 0)
(3 -8.04564e-16 0)
(3 -9.31784e-16 0)
(3 -2.11543e-16 0)
(3 -1.06239e-16 0)
(3 4.7669e-17 0)
(3 1.61287e-15 0)
(3 2.52895e-15 0)
(3 2.29561e-15 0)
(3 8.85067e-16 0)
(3 -6.28081e-16 0)
(3 -3.45629e-16 0)
(3 1.71431e-16 0)
(3 -3.90414e-16 0)
(3 -9.77194e-16 0)
(3 -1.31336e-16 0)
(3 -2.90012e-16 0)
(3 -6.46638e-16 0)
(3 -7.57623e-16 0)
(3 -6.89166e-16 0)
(3 -6.80714e-16 0)
(3 -7.19502e-16 0)
(3 -2.74669e-16 0)
(3 4.73646e-16 0)
(3 6.26088e-16 0)
(3 8.25871e-16 0)
(3 2.05385e-15 0)
(3 2.1502e-15 0)
(3 1.85537e-15 0)
(3 1.59435e-15 0)
(3 1.68082e-15 0)
(3 1.73586e-15 0)
(3 1.40578e-15 0)
(3 1.16697e-15 0)
(3 1.39969e-15 0)
(3 2.21397e-15 0)
(3 2.50895e-15 0)
(3 2.98611e-16 0)
(3 -1.04078e-15 0)
(3 -1.66754e-15 0)
(3 -2.98633e-15 0)
(3 -2.44542e-15 0)
(3 -1.61685e-15 0)
(3 -6.97968e-16 0)
(3 -7.62999e-17 0)
(3 -1.15319e-16 0)
(3 -4.98285e-16 0)
(3 -6.69356e-16 0)
(3 -4.44553e-16 0)
(3 1.41724e-17 0)
(3 1.40594e-16 0)
(3 -2.30812e-17 0)
(3 -1.77033e-16 0)
(3 6.67853e-16 0)
(3 1.36286e-15 0)
(3 2.41824e-15 0)
(3 2.40107e-15 0)
(3 2.77556e-15 0)
(3 1.62235e-15 0)
(3 8.50942e-16 0)
(3 4.53039e-16 0)
(3 -1.19259e-16 0)
(3 -3.50919e-16 0)
(3 4.75337e-17 0)
(3 1.9755e-16 0)
(3 2.71883e-16 0)
(3 2.06406e-16 0)
(3 7.32524e-17 0)
(3 4.84811e-17 0)
(3 1.43771e-16 0)
(3 2.32949e-16 0)
(3 4.4159e-16 0)
(3 5.66196e-16 0)
(3 6.5113e-16 0)
(3 7.68257e-16 0)
(3 1.29314e-15 0)
(3 1.17394e-15 0)
(3 8.16693e-16 0)
(3 7.00655e-16 0)
(3 5.73465e-16 0)
(3 8.92394e-16 0)
(3 9.08504e-16 0)
(3 1.82518e-15 0)
(3 1.4909e-15 0)
(3 6.60301e-16 0)
(3 7.82614e-16 0)
(3 1.56734e-15 0)
(3 6.44257e-16 0)
(3 -5.26976e-16 0)
(3 -7.47137e-16 0)
(3 -7.136e-16 0)
(3 -6.04663e-16 0)
(3 1.00126e-15 0)
(3 1.55096e-15 0)
(3 1.54254e-17 0)
(3 -3.09608e-16 0)
(3 -5.54796e-16 0)
(3 -2.34992e-16 0)
(3 -9.00842e-17 0)
(3 -6.31025e-16 0)
(3 -7.02734e-16 0)
(3 -5.73046e-16 0)
(3 5.37292e-16 0)
(3 1.05103e-15 0)
(3 8.6418e-16 0)
(3 1.61442e-15 0)
(3 1.4136e-15 0)
(3 9.47742e-16 0)
(3 -1.81506e-16 0)
(3 -1.12712e-15 0)
(3 -1.51684e-15 0)
(3 1.06923e-16 0)
(3 2.32189e-16 0)
(3 6.09378e-16 0)
(3 6.4119e-16 0)
(3 7.70195e-16 0)
(3 9.68284e-16 0)
(3 9.63122e-16 0)
(3 1.46986e-15 0)
(3 1.15664e-15 0)
(3 7.31483e-16 0)
(3 1.73999e-17 0)
(3 -9.9364e-16 0)
(3 -9.24301e-16 0)
(3 -3.79495e-16 0)
(3 -1.52668e-16 0)
(3 1.34653e-16 0)
(3 6.93725e-16 0)
(3 1.10362e-15 0)
(3 1.20508e-15 0)
(3 1.24046e-15 0)
(3 -1.38858e-16 0)
(3 -9.40593e-17 0)
(3 1.44664e-15 0)
(3 2.66879e-15 0)
(3 2.25555e-15 0)
(3 2.31173e-15 0)
(3 1.51925e-15 0)
(3 2.33032e-16 0)
(3 -1.07473e-15 0)
(3 6.11544e-17 0)
(3 6.69858e-16 0)
(3 1.17418e-15 0)
(3 5.51095e-17 0)
(3 -1.09149e-15 0)
(3 -1.09946e-15 0)
(3 -5.3258e-16 0)
(3 -2.5139e-16 0)
(3 -6.25235e-16 0)
(3 -1.55839e-15 0)
(3 -1.10008e-15 0)
(3 -8.08619e-16 0)
(3 1.79728e-16 0)
(3 3.43515e-16 0)
(3 1.72174e-15 0)
(3 1.28166e-15 0)
(3 6.69853e-16 0)
(3 -2.09886e-16 0)
(3 -1.28369e-15 0)
(3 -1.87646e-16 0)
(3 3.33719e-17 0)
(3 4.53218e-18 0)
(3 -1.68857e-16 0)
(3 -2.05707e-16 0)
(3 -1.56205e-17 0)
(3 8.27577e-17 0)
(3 7.5932e-17 0)
(3 -3.31983e-16 0)
(3 -5.0648e-16 0)
(3 -8.98135e-16 0)
(3 -1.86043e-15 0)
(3 -2.26719e-15 0)
(3 -1.37107e-15 0)
(3 -6.16084e-16 0)
(3 -1.04944e-15 0)
(3 -8.32714e-16 0)
(3 -1.58215e-16 0)
(3 1.28958e-15 0)
(3 1.07994e-15 0)
(3 9.16829e-16 0)
(3 1.25355e-15 0)
(3 1.19966e-15 0)
(3 9.67947e-16 0)
(3 4.38047e-16 0)
(3 4.2551e-16 0)
(3 1.5e-15 0)
(3 7.16946e-16 0)
(3 7.65218e-17 0)
(3 -1.09456e-15 0)
(3 -3.2283e-16 0)
(3 5.32284e-16 0)
(3 4.55771e-16 0)
(3 4.49478e-16 0)
(3 4.80626e-16 0)
(3 4.10908e-16 0)
(3 8.31316e-16 0)
(3 -3.67182e-17 0)
(3 -1.15576e-15 0)
(3 -1.3146e-15 0)
(3 -1.27441e-15 0)
(3 -8.00435e-16 0)
(3 1.96906e-16 0)
(3 1.2746e-15 0)
(3 1.98187e-15 0)
(3 3.18487e-15 0)
(3 2.58733e-15 0)
(3 -6.34045e-16 0)
(3 7.91133e-18 0)
(3 -1.48407e-16 0)
(3 2.20729e-16 0)
(3 1.98657e-16 0)
(3 -1.09179e-16 0)
(3 -2.87656e-16 0)
(3 -4.41831e-16 0)
(3 -1.22556e-15 0)
(3 -1.17726e-15 0)
(3 -6.36591e-16 0)
(3 3.40098e-17 0)
(3 -4.66557e-16 0)
(3 -6.91756e-16 0)
(3 -2.5837e-16 0)
(3 -1.83776e-16 0)
(3 -7.49106e-16 0)
(3 -1.07617e-15 0)
(3 -7.49603e-17 0)
(3 1.45415e-15 0)
(3 1.49903e-15 0)
(3 1.39956e-15 0)
(3 5.39692e-16 0)
(3 -6.53558e-17 0)
(3 -5.47868e-16 0)
(3 -7.9513e-16 0)
(3 -2.03225e-16 0)
(3 1.1758e-15 0)
(3 1.62317e-15 0)
(3 2.21862e-15 0)
(3 3.27723e-16 0)
(3 -3.88558e-16 0)
(3 -7.1128e-16 0)
(3 -3.16107e-16 0)
(3 -5.37205e-17 0)
(3 -4.47424e-17 0)
(3 -1.73428e-16 0)
(3 -3.19455e-16 0)
(3 -9.41427e-16 0)
(3 -1.19645e-15 0)
(3 -1.46723e-15 0)
(3 -2.09174e-15 0)
(3 -2.67211e-15 0)
(3 -2.38122e-15 0)
(3 -1.93627e-15 0)
(3 -7.835e-16 0)
(3 6.12194e-16 0)
(3 1.91531e-15 0)
(3 1.82092e-15 0)
(3 -3.26373e-19 0)
(3 -5.72856e-17 0)
(3 6.0925e-17 0)
(3 4.56599e-16 0)
(3 5.11672e-16 0)
(3 1.8813e-16 0)
(3 -2.57823e-16 0)
(3 -1.73968e-16 0)
(3 -1.43706e-18 0)
(3 1.34813e-16 0)
(3 3.52023e-16 0)
(3 4.47589e-16 0)
(3 3.41275e-16 0)
(3 -3.12175e-16 0)
(3 -6.12183e-16 0)
(3 -5.9417e-16 0)
(3 -3.4214e-16 0)
(3 -3.31835e-16 0)
(3 -3.11407e-16 0)
(3 -3.64254e-16 0)
(3 -5.42438e-16 0)
(3 -1.81389e-15 0)
(3 -3.04017e-15 0)
(3 -2.46149e-15 0)
(3 -1.14513e-15 0)
(3 6.11453e-16 0)
(3 2.52821e-15 0)
(3 3.4428e-15 0)
(3 3.12653e-15 0)
(3 1.37955e-15 0)
(3 -4.74206e-16 0)
(3 -8.14833e-16 0)
(3 -3.99379e-16 0)
(3 -1.24695e-17 0)
(3 -1.01562e-16 0)
(3 -1.57604e-16 0)
(3 -1.00614e-16 0)
(3 -2.10553e-16 0)
(3 -5.62062e-17 0)
(3 -1.53048e-15 0)
(3 -3.54168e-15 0)
(3 -4.58735e-15 0)
(3 -4.41487e-15 0)
(3 -3.88633e-15 0)
(3 -2.12772e-15 0)
(3 -5.83363e-16 0)
(3 1.01769e-15 0)
(3 1.86674e-15 0)
(3 -1.04506e-17 0)
(3 8.23315e-18 0)
(3 -3.17702e-16 0)
(3 -3.29553e-16 0)
(3 1.69542e-16 0)
(3 1.56156e-16 0)
(3 1.93451e-16 0)
(3 1.78459e-16 0)
(3 -8.00318e-17 0)
(3 -1.06568e-15 0)
(3 -8.24814e-16 0)
(3 1.24163e-16 0)
(3 2.16194e-16 0)
(3 -1.18167e-15 0)
(3 -1.56104e-15 0)
(3 -1.16726e-15 0)
(3 -1.05614e-15 0)
(3 -1.11086e-15 0)
(3 -1.80743e-15 0)
(3 -5.89467e-16 0)
(3 5.90229e-16 0)
(3 3.41949e-16 0)
(3 -1.67922e-15 0)
(3 -1.68923e-15 0)
(3 5.28852e-17 0)
(3 9.56714e-16 0)
(3 2.54852e-15 0)
(3 3.66588e-15 0)
(3 2.91031e-15 0)
(3 1.71256e-15 0)
(3 6.69355e-16 0)
(3 4.18818e-16 0)
(3 4.83197e-16 0)
(3 6.60327e-16 0)
(3 7.17577e-16 0)
(3 9.00916e-17 0)
(3 -9.87736e-16 0)
(3 -1.06529e-15 0)
(3 -1.10632e-15 0)
(3 -1.01059e-15 0)
(3 -1.81853e-15 0)
(3 -2.10312e-15 0)
(3 -2.25742e-15 0)
(3 -1.37954e-15 0)
(3 -2.91049e-17 0)
(3 7.01822e-16 0)
(3 1.11056e-15 0)
(3 2.01115e-15 0)
(3 4.99978e-17 0)
(3 -5.56028e-17 0)
(3 -7.79479e-18 0)
(3 -6.47209e-17 0)
(3 -5.53744e-17 0)
(3 2.4582e-17 0)
(3 1.16015e-16 0)
(3 -1.72326e-16 0)
(3 -9.39993e-17 0)
(3 -6.47314e-16 0)
(3 -3.06944e-16 0)
(3 7.22972e-16 0)
(3 8.26336e-16 0)
(3 3.30356e-16 0)
(3 5.12554e-16 0)
(3 6.98484e-16 0)
(3 -2.9666e-16 0)
(3 -9.68366e-16 0)
(3 -1.20659e-15 0)
(3 -1.36168e-15 0)
(3 -5.01334e-16 0)
(3 5.47493e-16 0)
(3 2.99873e-16 0)
(3 -2.64763e-17 0)
(3 4.3628e-16 0)
(3 1.0756e-15 0)
(3 1.0732e-15 0)
(3 9.1667e-16 0)
(3 1.88509e-15 0)
(3 2.6244e-15 0)
(3 2.83841e-15 0)
(3 2.70156e-15 0)
(3 1.63336e-15 0)
(3 1.04754e-15 0)
(3 3.41696e-16 0)
(3 -5.9417e-16 0)
(3 -1.09692e-15 0)
(3 -1.19959e-15 0)
(3 -1.35655e-15 0)
(3 -1.49751e-15 0)
(3 -1.6629e-15 0)
(3 -1.0797e-15 0)
(3 -6.03628e-16 0)
(3 -4.66698e-16 0)
(3 -1.53554e-16 0)
(3 -1.86401e-16 0)
(3 1.26556e-16 0)
(3 7.56672e-16 0)
(3 6.06947e-17 0)
(3 5.58905e-17 0)
(3 -1.60612e-17 0)
(3 2.03063e-16 0)
(3 3.23407e-16 0)
(3 2.26534e-16 0)
(3 2.90166e-16 0)
(3 7.05134e-16 0)
(3 9.56839e-16 0)
(3 1.50266e-15 0)
(3 1.25642e-15 0)
(3 2.37424e-15 0)
(3 2.33599e-15 0)
(3 2.57741e-15 0)
(3 2.51699e-15 0)
(3 2.42134e-15 0)
(3 2.40942e-15 0)
(3 7.86926e-16 0)
(3 2.40855e-16 0)
(3 -4.13016e-16 0)
(3 -1.61986e-15 0)
(3 -9.82502e-16 0)
(3 5.45248e-16 0)
(3 1.68315e-15 0)
(3 2.54441e-15 0)
(3 1.41898e-15 0)
(3 -2.29002e-16 0)
(3 -5.76378e-16 0)
(3 1.14215e-16 0)
(3 2.08415e-15 0)
(3 3.8571e-15 0)
(3 3.52992e-15 0)
(3 1.02765e-15 0)
(3 -3.96503e-16 0)
(3 -8.32461e-16 0)
(3 -3.02869e-16 0)
(3 -1.19372e-15 0)
(3 -1.33716e-15 0)
(3 -1.70027e-15 0)
(3 -2.09195e-15 0)
(3 -2.41149e-15 0)
(3 -3.12139e-15 0)
(3 -3.48357e-15 0)
(3 -3.20184e-15 0)
(3 -2.27153e-15 0)
(3 -1.22583e-15 0)
(3 -7.66734e-16 0)
(3 -5.51809e-16 0)
(3 1.39091e-16 0)
(3 2.6264e-16 0)
(3 5.58669e-17 0)
(3 1.1474e-16 0)
(3 6.43965e-18 0)
(3 -9.58653e-17 0)
(3 -1.95802e-16 0)
(3 2.66875e-16 0)
(3 4.81115e-16 0)
(3 1.04792e-15 0)
(3 1.21819e-15 0)
(3 1.46975e-15 0)
(3 1.69965e-15 0)
(3 1.84479e-15 0)
(3 1.7185e-15 0)
(3 1.64431e-15 0)
(3 1.87636e-15 0)
(3 1.6223e-15 0)
(3 7.47877e-16 0)
(3 4.3806e-16 0)
(3 8.15039e-17 0)
(3 -5.79079e-17 0)
(3 8.31751e-16 0)
(3 1.26656e-15 0)
(3 1.22603e-15 0)
(3 1.28619e-16 0)
(3 -4.51231e-16 0)
(3 -1.3158e-15 0)
(3 -8.52018e-16 0)
(3 6.39535e-16 0)
(3 1.1537e-15 0)
(3 5.99733e-16 0)
(3 -3.03773e-16 0)
(3 -1.1422e-15 0)
(3 -9.83411e-16 0)
(3 -9.08942e-17 0)
(3 -1.15955e-16 0)
(3 -5.95612e-16 0)
(3 -8.34263e-16 0)
(3 -1.26186e-15 0)
(3 -1.47631e-15 0)
(3 -1.86218e-15 0)
(3 -2.37222e-15 0)
(3 -2.41919e-15 0)
(3 -3.28107e-15 0)
(3 -2.98366e-15 0)
(3 -2.24285e-15 0)
(3 -2.55825e-16 0)
(3 -3.0455e-17 0)
(3 -5.6643e-17 0)
(3 1.63235e-16 0)
(3 1.81569e-17 0)
(3 -4.72302e-16 0)
(3 -4.36489e-16 0)
(3 -2.97117e-16 0)
(3 3.73024e-16 0)
(3 4.90663e-16 0)
(3 5.98557e-16 0)
(3 5.41385e-16 0)
(3 2.28398e-16 0)
(3 1.61237e-16 0)
(3 2.59562e-16 0)
(3 3.03226e-16 0)
(3 5.97015e-16 0)
(3 6.15662e-16 0)
(3 3.14186e-16 0)
(3 -2.94212e-16 0)
(3 -6.03261e-16 0)
(3 6.48609e-16 0)
(3 8.16758e-16 0)
(3 2.86751e-16 0)
(3 -6.0111e-16 0)
(3 -7.20949e-16 0)
(3 -5.99066e-16 0)
(3 -3.50671e-16 0)
(3 -3.12549e-17 0)
(3 1.1728e-16 0)
(3 -9.91856e-16 0)
(3 -1.3636e-15 0)
(3 -1.60513e-15 0)
(3 -1.05163e-15 0)
(3 -4.60657e-16 0)
(3 -5.11098e-17 0)
(3 -1.735e-17 0)
(3 -3.86928e-16 0)
(3 -3.08318e-16 0)
(3 1.71735e-16 0)
(3 -2.20786e-16 0)
(3 -5.74092e-16 0)
(3 -1.33494e-16 0)
(3 1.6519e-16 0)
(3 -9.46009e-17 0)
(3 -6.57477e-16 0)
(3 -1.72348e-15 0)
(3 -1.4306e-15 0)
(3 -1.17032e-16 0)
(3 -1.52368e-16 0)
(3 -2.23409e-16 0)
(3 -1.34996e-16 0)
(3 -8.25273e-17 0)
(3 -9.62933e-17 0)
(3 -9.91306e-17 0)
(3 4.35355e-16 0)
(3 6.01691e-16 0)
(3 5.89128e-16 0)
(3 7.12462e-16 0)
(3 5.99946e-16 0)
(3 3.53227e-16 0)
(3 -1.58065e-16 0)
(3 -8.06447e-16 0)
(3 -1.08656e-15 0)
(3 -6.92e-16 0)
(3 -5.74703e-16 0)
(3 -8.6812e-16 0)
(3 -7.24449e-16 0)
(3 -4.19226e-16 0)
(3 6.08494e-16 0)
(3 1.30496e-15 0)
(3 4.63477e-16 0)
(3 -9.5419e-16 0)
(3 -1.71922e-15 0)
(3 -6.85155e-16 0)
(3 -5.21677e-16 0)
(3 -3.76886e-16 0)
(3 -2.50705e-16 0)
(3 -1.21994e-15 0)
(3 -1.69765e-15 0)
(3 -1.46268e-15 0)
(3 -5.76401e-17 0)
(3 9.36836e-17 0)
(3 5.1751e-17 0)
(3 1.57118e-17 0)
(3 6.19697e-16 0)
(3 1.81851e-16 0)
(3 -2.84507e-16 0)
(3 2.45834e-17 0)
(3 7.94649e-16 0)
(3 2.68926e-15 0)
(3 3.40682e-15 0)
(3 2.89573e-15 0)
(3 2.04006e-15 0)
(3 1.38858e-15 0)
(3 3.00901e-16 0)
(3 -2.7869e-16 0)
(3 -1.88788e-16 0)
(3 1.13388e-16 0)
(3 1.80482e-16 0)
(3 7.41158e-17 0)
(3 2.28008e-16 0)
(3 5.55777e-16 0)
(3 5.60226e-16 0)
(3 1.32416e-16 0)
(3 -4.39113e-16 0)
(3 -4.40305e-16 0)
(3 -4.7205e-16 0)
(3 -7.24296e-16 0)
(3 -8.36505e-16 0)
(3 -1.23012e-15 0)
(3 -1.41077e-15 0)
(3 -1.25468e-15 0)
(3 -1.40408e-15 0)
(3 -1.49987e-15 0)
(3 -5.32726e-16 0)
(3 1.81138e-16 0)
(3 -7.36685e-17 0)
(3 -1.2042e-15 0)
(3 -1.59027e-15 0)
(3 -1.49549e-15 0)
(3 -1.45148e-15 0)
(3 -2.167e-16 0)
(3 -7.50862e-16 0)
(3 -9.23418e-16 0)
(3 -5.82144e-16 0)
(3 -5.44361e-16 0)
(3 -5.10423e-16 0)
(3 1.72173e-16 0)
(3 1.20516e-15 0)
(3 1.81759e-15 0)
(3 1.30454e-15 0)
(3 6.68918e-16 0)
(3 8.09135e-16 0)
(3 9.78721e-16 0)
(3 5.53484e-16 0)
(3 3.91425e-16 0)
(3 2.49767e-15 0)
(3 3.15425e-15 0)
(3 2.30933e-15 0)
(3 1.21605e-15 0)
(3 6.05294e-16 0)
(3 1.02489e-15 0)
(3 8.93691e-16 0)
(3 6.32189e-16 0)
(3 1.05566e-16 0)
(3 2.98064e-16 0)
(3 1.08846e-16 0)
(3 1.05467e-17 0)
(3 1.72473e-16 0)
(3 8.4662e-17 0)
(3 -2.00741e-16 0)
(3 -1.47343e-15 0)
(3 -2.35566e-15 0)
(3 -2.11459e-15 0)
(3 -1.96775e-15 0)
(3 -2.05793e-15 0)
(3 -1.40946e-15 0)
(3 -6.8656e-16 0)
(3 -9.50227e-16 0)
(3 -1.42554e-15 0)
(3 -2.04257e-15 0)
(3 -2.12154e-15 0)
(3 -2.02838e-15 0)
(3 -1.44844e-15 0)
(3 -1.44513e-15 0)
(3 -1.36671e-15 0)
(3 -4.74289e-16 0)
(3 5.36386e-16 0)
(3 7.64499e-16 0)
(3 8.04365e-16 0)
(3 7.68922e-16 0)
(3 4.10246e-16 0)
(3 3.34936e-16 0)
(3 5.30419e-16 0)
(3 4.13395e-16 0)
(3 5.28366e-16 0)
(3 1.60839e-15 0)
(3 2.06194e-15 0)
(3 1.087e-15 0)
(3 -2.07867e-16 0)
(3 -1.24058e-16 0)
(3 8.78898e-16 0)
(3 1.48062e-15 0)
(3 1.42985e-15 0)
(3 1.44173e-15 0)
(3 1.38588e-15 0)
(3 8.94808e-16 0)
(3 7.60328e-16 0)
(3 8.89747e-16 0)
(3 4.11449e-16 0)
(3 8.14314e-17 0)
(3 1.46616e-16 0)
(3 1.46364e-17 0)
(3 -2.2097e-16 0)
(3 -7.71141e-17 0)
(3 1.30288e-16 0)
(3 5.18329e-17 0)
(3 -4.46328e-16 0)
(3 -1.00863e-15 0)
(3 -1.68833e-15 0)
(3 -2.21982e-15 0)
(3 -2.68271e-15 0)
(3 -2.6034e-15 0)
(3 -1.85723e-15 0)
(3 -1.43635e-15 0)
(3 -1.09873e-15 0)
(3 -7.0931e-16 0)
(3 -1.0031e-15 0)
(3 -1.7271e-15 0)
(3 -1.53433e-15 0)
(3 -1.1757e-15 0)
(3 -8.14533e-16 0)
(3 -6.01017e-16 0)
(3 8.51664e-17 0)
(3 7.37315e-16 0)
(3 1.31529e-15 0)
(3 1.27077e-15 0)
(3 1.00484e-15 0)
(3 1.33082e-15 0)
(3 2.39175e-15 0)
(3 2.42754e-15 0)
(3 1.93156e-15 0)
(3 1.55433e-15 0)
(3 9.72637e-16 0)
(3 7.30061e-16 0)
(3 5.19906e-17 0)
(3 -1.20174e-15 0)
(3 -1.39191e-15 0)
(3 -9.23205e-16 0)
(3 -5.5021e-16 0)
(3 2.24967e-16 0)
(3 9.65014e-16 0)
(3 1.01954e-15 0)
(3 1.01283e-15 0)
(3 1.62376e-15 0)
(3 2.14882e-15 0)
(3 2.26403e-15 0)
(3 1.86452e-15 0)
(3 1.13621e-15 0)
(3 5.23773e-16 0)
(3 1.61218e-17 0)
(3 -7.69214e-17 0)
(3 5.86489e-17 0)
(3 2.82558e-16 0)
(3 3.41404e-17 0)
(3 5.25175e-17 0)
(3 7.43163e-17 0)
(3 1.0084e-15 0)
(3 3.55542e-16 0)
(3 4.38309e-17 0)
(3 -4.66886e-16 0)
(3 -4.47492e-16 0)
(3 -8.41717e-16 0)
(3 -8.48748e-16 0)
(3 -6.39334e-16 0)
(3 -6.31077e-16 0)
(3 -3.75359e-16 0)
(3 -1.746e-16 0)
(3 3.66443e-16 0)
(3 3.45221e-16 0)
(3 4.43993e-16 0)
(3 2.50675e-16 0)
(3 7.47919e-17 0)
(3 -1.80246e-16 0)
(3 4.55327e-17 0)
(3 -1.41185e-17 0)
(3 4.22006e-16 0)
(3 1.07885e-15 0)
(3 1.04145e-15 0)
(3 9.34275e-16 0)
(3 4.18392e-16 0)
(3 5.31963e-16 0)
(3 -3.70667e-16 0)
(3 -8.07199e-16 0)
(3 -3.65705e-16 0)
(3 -3.3781e-17 0)
(3 -1.01718e-15 0)
(3 -1.8811e-15 0)
(3 -1.53875e-15 0)
(3 -8.3101e-16 0)
(3 6.30271e-16 0)
(3 1.87955e-15 0)
(3 2.82768e-15 0)
(3 3.64002e-15 0)
(3 4.0089e-15 0)
(3 3.77536e-15 0)
(3 3.03743e-15 0)
(3 1.42865e-15 0)
(3 1.6867e-16 0)
(3 1.87387e-16 0)
(3 -6.33365e-17 0)
(3 -3.4144e-18 0)
(3 1.58907e-17 0)
(3 1.79947e-16 0)
(3 4.39226e-16 0)
(3 1.15197e-15 0)
(3 1.84909e-15 0)
(3 2.15003e-15 0)
(3 1.98445e-15 0)
(3 1.28413e-15 0)
(3 9.21187e-16 0)
(3 1.08798e-15 0)
(3 4.62346e-16 0)
(3 6.41341e-17 0)
(3 3.00821e-16 0)
(3 4.17717e-16 0)
(3 3.13989e-16 0)
(3 3.20066e-16 0)
(3 3.78227e-16 0)
(3 -2.77521e-16 0)
(3 -6.7116e-16 0)
(3 -6.01595e-16 0)
(3 -7.69026e-16 0)
(3 -5.65919e-16 0)
(3 -4.00884e-16 0)
(3 -1.43084e-16 0)
(3 3.19252e-17 0)
(3 -2.38157e-16 0)
(3 -9.95355e-17 0)
(3 8.59286e-17 0)
(3 -2.24564e-16 0)
(3 -1.62257e-16 0)
(3 -1.06526e-16 0)
(3 -1.14811e-16 0)
(3 -1.86616e-17 0)
(3 -9.04599e-16 0)
(3 -7.60461e-16 0)
(3 -3.60397e-16 0)
(3 1.23669e-16 0)
(3 1.06785e-15 0)
(3 2.06961e-15 0)
(3 2.62526e-15 0)
(3 2.59386e-15 0)
(3 2.40774e-15 0)
(3 2.73166e-15 0)
(3 1.51095e-15 0)
(3 -1.11352e-16 0)
(3 -1.96691e-16 0)
(3 -1.79272e-16 0)
(3 -1.97097e-16 0)
(3 -2.40043e-16 0)
(3 -1.24594e-16 0)
(3 1.29449e-16 0)
(3 5.03779e-16 0)
(3 1.10102e-15 0)
(3 1.30048e-15 0)
(3 1.26076e-15 0)
(3 9.52936e-16 0)
(3 3.235e-16 0)
(3 1.8835e-16 0)
(3 1.59336e-16 0)
(3 5.80307e-17 0)
(3 -9.43813e-17 0)
(3 -3.63208e-16 0)
(3 -6.038e-16 0)
(3 -6.14512e-16 0)
(3 -9.97457e-16 0)
(3 -1.63372e-15 0)
(3 -2.20926e-15 0)
(3 -1.92809e-15 0)
(3 -1.33769e-15 0)
(3 -5.90977e-16 0)
(3 -5.06082e-16 0)
(3 -5.42131e-16 0)
(3 -2.98095e-16 0)
(3 -1.8705e-16 0)
(3 -1.723e-16 0)
(3 -9.68145e-16 0)
(3 -8.23684e-16 0)
(3 -1.71126e-16 0)
(3 2.22478e-16 0)
(3 6.92194e-16 0)
(3 9.76524e-16 0)
(3 1.51224e-15 0)
(3 1.68756e-15 0)
(3 2.45509e-15 0)
(3 1.71234e-15 0)
(3 1.60517e-15 0)
(3 2.02546e-15 0)
(3 2.04422e-15 0)
(3 1.91062e-15 0)
(3 1.52335e-15 0)
(3 1.38553e-15 0)
(3 1.9679e-15 0)
(3 4.36418e-17 0)
(3 -6.03896e-18 0)
(3 -1.12581e-16 0)
(3 -4.26097e-16 0)
(3 -1.36355e-16 0)
(3 1.81836e-16 0)
(3 4.62148e-16 0)
(3 8.48321e-16 0)
(3 8.48443e-16 0)
(3 4.61521e-17 0)
(3 5.13013e-17 0)
(3 1.16924e-16 0)
(3 -4.22712e-16 0)
(3 -7.67345e-16 0)
(3 -1.25157e-15 0)
(3 -1.14216e-15 0)
(3 -1.26902e-15 0)
(3 -6.68544e-16 0)
(3 -6.16631e-16 0)
(3 -1.37489e-15 0)
(3 -1.72395e-15 0)
(3 -1.68407e-15 0)
(3 -1.40671e-15 0)
(3 -1.46042e-15 0)
(3 -5.83783e-16 0)
(3 -1.07927e-16 0)
(3 -3.63109e-16 0)
(3 -6.70496e-16 0)
(3 -7.27698e-16 0)
(3 1.72806e-16 0)
(3 1.01923e-15 0)
(3 5.56924e-16 0)
(3 5.67801e-17 0)
(3 1.17618e-16 0)
(3 6.67645e-16 0)
(3 1.03417e-15 0)
(3 2.03688e-15 0)
(3 3.57332e-15 0)
(3 3.76243e-15 0)
(3 3.30547e-15 0)
(3 2.7266e-15 0)
(3 1.98363e-15 0)
(3 1.63121e-15 0)
(3 1.15694e-15 0)
(3 8.59097e-16 0)
(3 7.18735e-16 0)
(3 3.31667e-16 0)
(3 3.00608e-16 0)
(3 -8.20271e-19 0)
(3 1.42771e-16 0)
(3 -1.14393e-16 0)
(3 -1.10255e-16 0)
(3 -5.42953e-17 0)
(3 1.80911e-16 0)
(3 2.50119e-16 0)
(3 2.24766e-16 0)
(3 -2.82479e-16 0)
(3 -8.38615e-16 0)
(3 -5.38228e-16 0)
(3 2.22667e-16 0)
(3 1.7288e-16 0)
(3 -7.76187e-16 0)
(3 -5.14413e-16 0)
(3 -2.70756e-16 0)
(3 1.8756e-16 0)
(3 1.00588e-15 0)
(3 1.2529e-15 0)
(3 1.16362e-15 0)
(3 -2.196e-16 0)
(3 -1.1373e-15 0)
(3 -8.3526e-16 0)
(3 -2.13799e-16 0)
(3 6.25548e-16 0)
(3 6.44552e-16 0)
(3 -1.0894e-16 0)
(3 -1.38627e-15 0)
(3 -1.51488e-15 0)
(3 -5.31515e-16 0)
(3 -2.63475e-16 0)
(3 -1.3121e-15 0)
(3 -1.42842e-15 0)
(3 -1.51292e-15 0)
(3 -1.10235e-15 0)
(3 -7.68511e-16 0)
(3 3.18778e-16 0)
(3 1.23099e-15 0)
(3 1.35641e-15 0)
(3 8.05099e-16 0)
(3 4.57725e-16 0)
(3 -4.16867e-16 0)
(3 -1.15756e-15 0)
(3 -1.27591e-15 0)
(3 -1.0684e-15 0)
(3 -3.84624e-16 0)
(3 -1.63811e-16 0)
(3 -2.27819e-16 0)
(3 -1.86181e-16 0)
(3 -4.18639e-16 0)
(3 2.44282e-19 0)
(3 3.73842e-16 0)
(3 -2.4635e-17 0)
(3 -2.24618e-16 0)
(3 -2.71512e-16 0)
(3 -6.04291e-16 0)
(3 -9.87593e-16 0)
(3 -8.08805e-16 0)
(3 -5.07372e-16 0)
(3 -3.02387e-16 0)
(3 -4.50363e-16 0)
(3 -1.46168e-16 0)
(3 6.26536e-16 0)
(3 1.49628e-15 0)
(3 1.90621e-15 0)
(3 1.36302e-15 0)
(3 1.27175e-15 0)
(3 1.30624e-15 0)
(3 9.62752e-16 0)
(3 7.59793e-16 0)
(3 1.07891e-15 0)
(3 1.21962e-15 0)
(3 1.22805e-15 0)
(3 8.68717e-17 0)
(3 -5.01591e-16 0)
(3 -8.03304e-16 0)
(3 -6.85585e-17 0)
(3 -3.03696e-16 0)
(3 -1.35446e-15 0)
(3 -1.86656e-15 0)
(3 -2.49948e-15 0)
(3 -3.44878e-15 0)
(3 -3.15053e-15 0)
(3 -2.10476e-15 0)
(3 -1.53849e-15 0)
(3 -8.84325e-16 0)
(3 -1.23218e-15 0)
(3 -1.79778e-15 0)
(3 -2.11373e-15 0)
(3 -2.26708e-15 0)
(3 -2.21683e-15 0)
(3 -1.07062e-15 0)
(3 -5.50983e-18 0)
(3 1.68565e-16 0)
(3 -2.52944e-16 0)
(3 -9.50401e-16 0)
(3 5.81547e-18 0)
(3 -7.17789e-17 0)
(3 6.71469e-17 0)
(3 1.014e-16 0)
(3 2.07461e-16 0)
(3 2.06124e-16 0)
(3 2.50253e-16 0)
(3 4.15611e-16 0)
(3 4.11085e-16 0)
(3 -1.6952e-16 0)
(3 -3.1341e-16 0)
(3 -3.83152e-16 0)
(3 -1.17689e-16 0)
(3 3.76367e-16 0)
(3 7.6336e-16 0)
(3 1.57432e-15 0)
(3 1.44669e-15 0)
(3 1.05541e-15 0)
(3 4.41027e-16 0)
(3 5.70189e-16 0)
(3 9.86948e-16 0)
(3 8.94712e-16 0)
(3 1.7286e-16 0)
(3 -1.65854e-16 0)
(3 -1.40186e-15 0)
(3 -1.79336e-15 0)
(3 -2.19585e-15 0)
(3 -1.09945e-15 0)
(3 -2.70565e-16 0)
(3 -3.42135e-16 0)
(3 -5.82814e-16 0)
(3 -4.77854e-16 0)
(3 -7.74311e-16 0)
(3 -7.31639e-16 0)
(3 -4.06039e-16 0)
(3 6.68438e-17 0)
(3 3.36256e-16 0)
(3 4.5321e-16 0)
(3 2.8922e-16 0)
(3 -2.74333e-16 0)
(3 -6.14998e-16 0)
(3 -9.42146e-16 0)
(3 -1.72836e-15 0)
(3 -2.1203e-15 0)
(3 -1.84566e-15 0)
(3 -1.52219e-15 0)
(3 -1.17938e-15 0)
(3 -1.68946e-15 0)
(3 7.30946e-17 0)
(3 6.02804e-16 0)
(3 3.7192e-16 0)
(3 2.62697e-17 0)
(3 9.18157e-17 0)
(3 1.2993e-16 0)
(3 1.26272e-16 0)
(3 4.87484e-16 0)
(3 7.97019e-16 0)
(3 1.39729e-15 0)
(3 9.49741e-16 0)
(3 6.48813e-16 0)
(3 1.9666e-16 0)
(3 -1.81717e-16 0)
(3 -1.28135e-17 0)
(3 1.18402e-16 0)
(3 1.59506e-16 0)
(3 2.06654e-16 0)
(3 7.22142e-17 0)
(3 -2.72993e-16 0)
(3 -4.71028e-16 0)
(3 -1.35084e-15 0)
(3 -1.88232e-15 0)
(3 -1.99111e-15 0)
(3 -2.64917e-15 0)
(3 -3.00357e-15 0)
(3 -1.92537e-15 0)
(3 -7.338e-16 0)
(3 -7.31026e-16 0)
(3 -7.69692e-16 0)
(3 4.86494e-17 0)
(3 4.50601e-16 0)
(3 8.25239e-16 0)
(3 1.73379e-15 0)
(3 2.34115e-15 0)
(3 1.81675e-15 0)
(3 1.41059e-15 0)
(3 1.49792e-15 0)
(3 1.63704e-15 0)
(3 1.5235e-15 0)
(3 1.64242e-15 0)
(3 3.9637e-16 0)
(3 -1.458e-15 0)
(3 -2.33611e-15 0)
(3 -2.34084e-15 0)
(3 -1.83345e-15 0)
(3 -2.01042e-16 0)
(3 -1.46556e-16 0)
(3 -7.34647e-17 0)
(3 1.23691e-16 0)
(3 7.85424e-17 0)
(3 -1.35427e-16 0)
(3 -3.29478e-16 0)
(3 -3.26387e-16 0)
(3 -4.45255e-16 0)
(3 -4.24782e-16 0)
(3 1.94739e-16 0)
(3 7.93228e-16 0)
(3 1.05019e-15 0)
(3 1.60651e-15 0)
(3 1.76503e-15 0)
(3 8.02878e-16 0)
(3 -1.24875e-16 0)
(3 -2.93128e-16 0)
(3 -5.6147e-16 0)
(3 -6.89455e-16 0)
(3 -2.45848e-16 0)
(3 -2.82797e-16 0)
(3 -3.03089e-16 0)
(3 2.04181e-16 0)
(3 7.18087e-17 0)
(3 -3.39914e-17 0)
(3 -3.03583e-16 0)
(3 -7.23873e-16 0)
(3 -1.43486e-15 0)
(3 -1.37453e-15 0)
(3 -1.29328e-15 0)
(3 -1.54514e-15 0)
(3 -1.7253e-15 0)
(3 1.67666e-16 0)
(3 1.23077e-15 0)
(3 1.26468e-15 0)
(3 2.46068e-15 0)
(3 2.1782e-15 0)
(3 1.1659e-15 0)
(3 6.96429e-16 0)
(3 6.94356e-16 0)
(3 1.98651e-16 0)
(3 -2.51667e-16 0)
(3 -3.19352e-16 0)
(3 -1.09416e-15 0)
(3 -1.43384e-15 0)
(3 -1.29624e-15 0)
(3 -7.67608e-16 0)
(3 7.36478e-16 0)
(3 1.77443e-15 0)
(3 -2.68753e-17 0)
(3 -2.9656e-16 0)
(3 -1.87367e-16 0)
(3 -3.27873e-17 0)
(3 7.23343e-17 0)
(3 1.59916e-17 0)
(3 -8.94415e-17 0)
(3 1.38383e-17 0)
(3 5.79794e-17 0)
(3 2.65205e-16 0)
(3 5.27629e-16 0)
(3 1.51382e-15 0)
(3 1.89695e-15 0)
(3 1.96855e-15 0)
(3 8.90501e-16 0)
(3 7.98388e-16 0)
(3 1.00388e-15 0)
(3 9.35727e-16 0)
(3 2.58511e-16 0)
(3 -5.87036e-16 0)
(3 4.11661e-16 0)
(3 2.32949e-15 0)
(3 2.15235e-15 0)
(3 1.13128e-15 0)
(3 1.2356e-15 0)
(3 1.67052e-15 0)
(3 7.01987e-16 0)
(3 -5.68705e-17 0)
(3 -2.33584e-16 0)
(3 -8.92209e-16 0)
(3 -1.3419e-15 0)
(3 -6.81812e-16 0)
(3 1.12773e-15 0)
(3 1.49364e-15 0)
(3 4.77771e-16 0)
(3 -4.11507e-16 0)
(3 -1.53599e-15 0)
(3 -2.7146e-15 0)
(3 -3.04378e-15 0)
(3 -3.48734e-15 0)
(3 -3.70888e-15 0)
(3 -2.95088e-15 0)
(3 -1.73715e-15 0)
(3 -1.26103e-15 0)
(3 -1.09942e-15 0)
(3 -1.16753e-15 0)
(3 -1.41494e-15 0)
(3 -2.63805e-16 0)
(3 -2.06747e-17 0)
(3 -1.66526e-17 0)
(3 -6.3812e-17 0)
(3 2.98304e-17 0)
(3 1.81113e-16 0)
(3 1.95799e-16 0)
(3 1.89864e-16 0)
(3 1.39245e-16 0)
(3 -1.0943e-17 0)