/*--------------------------------*- C++ -*----------------------------------*\
  =========                 |
  \\      /  F ield         | OpenFOAM: The Open Source CFD Toolbox
   \\    /   O peration     | Website:  https://openfoam.org
    \\  /    A nd           | Version:  7
     \\/     M anipulation  |
\*---------------------------------------------------------------------------*/
FoamFile
{
    version     2.0;
    format      ascii;
    class       volScalarField;
    location    "1";
    object      p;
}
// * * * * * * * * * * * * * * * * * * * * * * * * * * * * * * * * * * * * * //

dimensions      [1 -1 -2 0 0 0 0];

internalField   nonuniform List<scalar> 
4608
(
1
1
1
1
1
1
1
1
1
1
1
1
1
1
1
1
1
1
1
1
1
1
1
1
1
1
1
1
1
1
1
1
1
1
1
1
1
1
1
1
1
1
1
1
1
1
1
1
1
1
1
1
1
1
1
1
1
1
1
1
1
1
1
1
1
1
1
1
1
1
1
1
1
1
1
1
1
1
1
1
1
1
1
1
1
1
1
1
1
1
1
1
1
1
1
1
1
1
1
1
1
1
1
1
1
1
1
1
1
1
1
1
1
1
1
1
1
1
1
1
1
1
1
1
1
1
1
1
1
1
1
1
1
1
1
1
1
1
1
1
1
1
1
1
1
1
1
1
1
1
1
1
1
1
1
1
1
1
1
1
1
1
1
1
1
1
1
1
1
1
1
1
1
1
1
1
1
1
1
1
1
1
1
1
1
1
1
1
1
1
1
1
1
1
1
1
1
1
1
1
1
1
1
1
1
1
1
1
1
1
1
1
1
1
1
1
1
1
1
1
1
1
1
1
1
1
1
1
1
1
1
1
1
1
1
1
1
1
1
1
1
1
1
1
1
1
1
1
1
1
1
1
1
1
1
1
1
1
1
1
1
1
1
1
1
1
1
1
1
1
1
1
1
1
1
1
1
1
1
1
1
1
1
1
1
1
1
1
1
1
1
1
1
1
1
1
1
1
1
1
1
1
1
1
1
1
1
1
1
1
1
1
1
1
1
1
1
1
1
1
1
1
1
1
1
1
1
1
1
1
1
1
1
1
1
1
1
1
1
1
1
1
1
1
1
1
1
1
1
1
1
1
1
1
1
1
1
1
1
1
1
1
1
1
1
1
1
1
1
1
1
1
1
1
1
1
1
1
1
1
1
1
1
1
1
1
1
1
1
1
1
1
1
1
1
1
1
1
1
1
1
1
1
1
1
1
1
1
1
1
1
1
1
1
1
1
1
1
1
1
1
1
1
1
1
1
1
1
1
1
1
1
1
1
1
1
1
1
1
1
1
1
1
1
1
1
1
1
1
1
1
1
1
1
1
1
1
1
1
1
1
1
1
1
1
1
1
1
1
1
1
1
1
1
1
1
1
1
1
1
1
1
1
1
1
1
1
1
1
1
1
1
1
1
1
1
1
1
1
1
1
1
1
1
1
1
1
1
1
1
1
1
1
1
1
1
1
1
1
1
1
1
1
1
1
1
1
1
1
1
1
1
1
1
1
1
1
1
1
1
1
1
1
1
1
1
1
1
1
1
1
1
1
1
1
1
1
1
1
1
1
1
1
1
1
1
1
1
1
1
1
1
1
1
1
1
1
1
1
1
1
1
1
1
1
1
1
1
1
1
1
1
1
1
1
1
1
1
1
1
1
1
1
1
1
1
1
1
1
1
1
1
1
1
1
1
1
1
1
1
1
1
1
1
1
1
1
1
1
1
1
1
1
1
1
1
1
1
1
1
1
1
1
1
1
1
1
1
1
1
1
1
1
1
1
1
1
1
1
1
1
1
1
1
1
1
1
1
1
1
1
1
1
1
1
1
1
1
1
1
1
1
1
1
1
1
1
1
1
1
1
1
1
1
1
1
1
1
1
1
1
1
1
1
1
1
1
1
1
1
1
1
1
1
1
1
1
1
1
1
1
1
1
1
1
1
1
1
1
1
1
1
1
1
1
1
1
1
1
1
1
1
1
1
1
1
1
1
1
1
1
1
1
1
1
1
1
1
1
1
1
1
1
1
1
1
1
1
1.29141
1.75799
2.34565
2.96456
3.64472
4.30024
4.80152
5.32616
5.38155
5.15648
4.69672
4.22043
3.79649
3.65841
3.57135
3.58324
3.6191
3.65356
3.67853
3.69914
3.72415
3.7554
3.76984
3.77173
1.00321
1.0189
1.08004
1.22278
1.46435
1.86398
2.35992
3.00863
3.56474
3.83723
4.0123
4.06095
3.98759
3.84748
3.76233
3.72868
3.70953
3.68677
3.68295
3.69419
3.71644
3.73789
3.75708
3.76593
1
0.999964
1.00003
1.00035
1.00339
1.02466
1.10827
1.36228
1.98962
3.00493
3.82202
4.30814
4.37916
4.27953
4.10015
3.84397
3.74291
3.70262
3.67797
3.68869
3.70468
3.71869
3.73693
3.76277
1
0.999999
0.999998
0.999998
0.999986
1.00004
0.999939
1.00165
1.03627
1.28819
2.05002
3.07513
4.06278
4.12908
4.05104
3.98069
3.88892
3.81095
3.75234
3.71412
3.70782
3.71408
3.72688
3.75926
1
1
1
1
0.999999
0.999999
0.999993
0.999991
0.999905
1.00106
1.04626
1.33843
2.25625
3.25987
3.95225
4.11673
4.07478
3.96713
3.86803
3.78953
3.73084
3.70642
3.71317
3.73455
1
1
1
1
1
1
1
0.999999
0.99999
0.999992
0.999909
1.00284
1.07141
1.54118
2.52458
3.49993
3.85197
3.86923
3.8387
3.76594
3.71837
3.71558
3.69991
3.70723
1
1
1
1
1
1
1
1
1
0.999999
0.999992
0.999986
0.999981
1.01242
1.14684
1.80659
2.87892
3.77523
3.87035
3.83369
3.79058
3.77261
3.7361
3.7096
1
1
1
1
1
1
1
1
1
1
1
0.999998
0.999997
0.999967
1.0007
1.04206
1.3375
2.28893
3.27072
3.78981
3.8668
3.85251
3.80186
3.74419
1
1
1
1
1
1
1
1
1
1
1
1
1
0.999996
0.999992
1.00004
1.00618
1.14614
1.74982
2.8605
3.44095
3.75369
3.81041
3.77897
1
1
1
1
1
1
1
1
1
1
1
1
1
1
0.999999
0.999999
0.999983
1.00186
1.04094
1.42508
2.32356
3.42499
3.71353
3.73045
1
1
1
1
1
1
1
1
1
1
1
1
1
1
1
1
0.999997
0.99999
1.00013
1.01715
1.20531
2.01156
2.99291
3.63684
1
1
1
1
1
1
1
1
1
1
1
1
1
1
1
1
1
0.999998
0.999997
1.00003
1.00485
1.10741
1.72612
2.81385
1
1
1
1
1
1
1
1
1
1
1
1
1
1
1
1
1
1
0.999999
0.999999
0.999999
1.00182
1.07235
1.49086
1
1
1
1
1
1
1
1
1
1
1
1
1
1
1
1
1
1
1
1
1
0.999999
1.00138
1.02685
1
1
1
1
1
1
1
1
1
1
1
1
1
1
1
1
1
1
1
1
1
0.999999
1.00001
0.99999
1
1
1
1
1
1
1
1
1
1
1
1
1
1
1
1
1
1
1
1
1
1
1
0.999993
1
1
1
1
1
1
1
1
1
1
1
1
1
1
1
1
1
1
1
1
1
1
1
0.999993
1
1
1
1
1
1
1
1
1
1
1
1
1
1
1
1
1
1
1
1
1
0.999999
1.00001
0.99999
1
1
1
1
1
1
1
1
1
1
1
1
1
1
1
1
1
1
1
1
1
0.999999
1.00138
1.02685
1
1
1
1
1
1
1
1
1
1
1
1
1
1
1
1
1
1
0.999999
0.999999
0.999999
1.00182
1.07235
1.49086
1
1
1
1
1
1
1
1
1
1
1
1
1
1
1
1
1
0.999998
0.999997
1.00003
1.00485
1.10741
1.72612
2.81385
1
1
1
1
1
1
1
1
1
1
1
1
1
1
1
1
0.999997
0.99999
1.00013
1.01715
1.20531
2.01156
2.99291
3.63684
1
1
1
1
1
1
1
1
1
1
1
1
1
1
0.999999
0.999999
0.999983
1.00186
1.04094
1.42508
2.32356
3.42499
3.71353
3.73045
1
1
1
1
1
1
1
1
1
1
1
1
1
0.999996
0.999992
1.00004
1.00618
1.14614
1.74982
2.8605
3.44095
3.75369
3.81041
3.77897
1
1
1
1
1
1
1
1
1
1
1
0.999998
0.999997
0.999967
1.0007
1.04206
1.3375
2.28893
3.27072
3.78981
3.8668
3.85251
3.80186
3.74419
1
1
1
1
1
1
1
1
1
0.999999
0.999992
0.999986
0.999981
1.01242
1.14684
1.80659
2.87892
3.77523
3.87035
3.83369
3.79058
3.77261
3.7361
3.7096
1
1
1
1
1
1
1
0.999999
0.99999
0.999992
0.999909
1.00284
1.07141
1.54118
2.52458
3.49993
3.85197
3.86923
3.8387
3.76594
3.71837
3.71558
3.69991
3.70723
1
1
1
1
0.999999
0.999999
0.999993
0.999991
0.999905
1.00106
1.04626
1.33843
2.25625
3.25987
3.95225
4.11673
4.07478
3.96713
3.86803
3.78953
3.73084
3.70642
3.71317
3.73455
1
0.999999
0.999998
0.999998
0.999986
1.00004
0.999939
1.00165
1.03627
1.28819
2.05002
3.07513
4.06278
4.12908
4.05104
3.98069
3.88892
3.81095
3.75234
3.71412
3.70782
3.71408
3.72688
3.75926
1
0.999964
1.00003
1.00035
1.00339
1.02466
1.10827
1.36228
1.98962
3.00493
3.82202
4.30814
4.37916
4.27953
4.10015
3.84397
3.74291
3.70262
3.67797
3.68869
3.70468
3.71869
3.73693
3.76277
1.00321
1.0189
1.08004
1.22278
1.46435
1.86398
2.35992
3.00863
3.56474
3.83723
4.0123
4.06095
3.98759
3.84748
3.76233
3.72868
3.70953
3.68677
3.68295
3.69419
3.71644
3.73789
3.75708
3.76593
1.29141
1.75799
2.34565
2.96456
3.64472
4.30024
4.80152
5.32616
5.38155
5.15648
4.69672
4.22043
3.79649
3.65841
3.57135
3.58324
3.6191
3.65356
3.67853
3.69914
3.72415
3.7554
3.76984
3.77173
2.65536
1.72703
1.10442
0.775332
0.738916
0.716424
0.694487
0.701809
0.757489
0.832541
0.894902
0.951164
1.00879
1.03653
1.03697
1.02776
1.03212
1.05118
1.06914
1.07627
1.0754
1.07153
1.06414
1.11829
1.43847
2.3502
4.06138
5.83702
7.5535
8.62388
8.35858
7.6117
6.81292
6.24094
5.91094
5.69229
5.50651
5.35272
5.16871
4.94675
4.71528
4.49908
4.32456
4.18026
4.05072
3.93627
3.82429
3.68991
3.53098
3.36634
3.21848
3.1056
3.0121
2.92352
2.84435
2.77693
2.7094
2.62114
2.50524
2.38894
2.30651
2.25198
2.20483
2.15732
2.1081
2.05303
1.98551
1.90503
1.82639
1.76775
1.73095
1.70441
1.67769
1.64515
1.60226
1.54403
1.47538
1.41795
1.37968
1.35123
1.32629
1.30148
1.27566
1.24547
1.20317
1.15058
1.11079
1.08519
1.06405
1.04547
1.03011
1.01474
0.994072
0.957843
0.913942
0.873822
3.35946
2.75566
2.22702
1.69722
1.43477
1.31777
1.1646
1.0254
0.985204
0.957584
0.923183
0.908042
0.91476
0.939779
0.952766
0.962276
0.976203
1.00234
1.02694
1.04238
1.04084
1.04531
1.11267
1.61187
2.40804
2.92125
3.34847
3.97521
4.73852
5.81299
6.32034
6.58325
6.62135
6.36762
6.1
5.839
5.60982
5.41038
5.2181
4.9968
4.767
4.55802
4.39458
4.25649
4.12391
4.00001
3.88208
3.74758
3.59892
3.45199
3.31204
3.18854
3.08162
2.98812
2.9085
2.83847
2.76672
2.6784
2.56981
2.45758
2.37083
2.31089
2.25862
2.20707
2.15538
2.09953
2.03358
1.95698
1.88241
1.82241
1.77834
1.7433
1.71023
1.67448
1.63143
1.57653
1.51411
1.45921
1.41963
1.38846
1.35985
1.33151
1.30292
1.27269
1.23507
1.18768
1.1455
1.11653
1.09329
1.07319
1.05633
1.03955
1.01797
0.983146
0.94163
0.901145
3.66373
3.32591
2.87852
2.40156
1.91573
1.65057
1.46103
1.24946
1.08915
1.02836
0.979357
0.920213
0.911189
0.921722
0.946753
0.947532
0.946261
0.960655
0.986017
1.01014
1.03576
1.14338
1.72115
2.65965
3.15977
3.2672
3.2717
3.24405
3.30429
3.69483
4.57531
5.61549
6.16396
6.35944
6.28479
6.06456
5.73415
5.37589
5.11295
4.90046
4.69672
4.49585
4.32216
4.16372
4.00624
3.85929
3.74778
3.64091
3.52286
3.39926
3.26785
3.14284
3.03187
2.93418
2.84783
2.76772
2.69602
2.61625
2.51985
2.41614
2.32431
2.26432
2.21768
2.16871
2.11714
2.06212
1.9981
1.92196
1.85093
1.79412
1.74555
1.70472
1.66508
1.62129
1.57438
1.52189
1.46984
1.42905
1.39662
1.36705
1.33713
1.30499
1.26853
1.22949
1.19387
1.16201
1.13376
1.10912
1.08493
1.06032
1.03691
1.01755
0.997431
0.968133
0.934501
0.89979
3.74695
3.62307
3.32431
2.95589
2.46767
2.06465
1.85725
1.6412
1.37883
1.25023
1.19824
1.10566
1.00391
0.985071
0.983516
0.971939
0.946665
0.93789
0.94615
0.967754
1.13967
1.73259
2.83557
3.20992
3.21413
3.19897
3.14277
3.00183
2.92262
2.91728
3.05238
3.5506
4.42483
5.35381
5.8065
5.70909
5.56996
5.42879
5.19023
4.93824
4.69402
4.47997
4.30933
4.13856
3.9815
3.83059
3.70864
3.60069
3.49431
3.38833
3.26113
3.13075
3.01406
2.91359
2.82989
2.74861
2.67428
2.59951
2.50764
2.41234
2.31855
2.24837
2.2036
2.16041
2.11099
2.0583
2.00083
1.92845
1.84994
1.79118
1.74114
1.69991
1.65941
1.61143
1.55451
1.50213
1.45624
1.42235
1.39389
1.36567
1.33625
1.30466
1.26702
1.22045
1.17557
1.1498
1.13211
1.11273
1.09048
1.06683
1.0403
1.0204
1.00034
0.96978
0.940159
0.91821
3.75516
3.7312
3.5896
3.32623
2.9702
2.53307
2.20566
1.99242
1.78241
1.53532
1.35292
1.25132
1.17687
1.10207
1.0484
0.995206
0.950546
0.942108
0.960047
1.17888
1.87955
2.83138
3.28728
3.2422
3.11896
2.99647
2.90624
2.83898
2.79357
2.73881
2.65883
2.65683
2.82204
3.34981
4.286
4.92464
5.31756
5.29982
5.2335
5.05071
4.76201
4.48037
4.26933
4.11133
3.97782
3.83076
3.67595
3.51812
3.38619
3.28821
3.20254
3.10985
3.00655
2.91584
2.83466
2.73958
2.63989
2.5757
2.5234
2.44862
2.3563
2.26443
2.19668
2.13933
2.08011
2.02299
1.96559
1.89551
1.80728
1.76363
1.75076
1.72608
1.69166
1.64189
1.56017
1.48964
1.46644
1.44654
1.42325
1.39612
1.36651
1.33043
1.28348
1.23139
1.17897
1.15278
1.14102
1.12464
1.10611
1.08908
1.05993
1.03189
1.01679
1.00691
1.01398
1.05711
3.72784
3.72475
3.69744
3.55536
3.29275
2.97019
2.63959
2.28883
2.07255
1.90713
1.71414
1.45908
1.34667
1.2983
1.2392
1.15566
1.07524
1.09772
1.35459
2.1425
3.01112
3.3701
3.32184
3.17125
2.9915
2.87629
2.79317
2.73233
2.6673
2.5863
2.47342
2.42302
2.38762
2.39904
2.60162
3.14387
3.90646
4.37465
4.74756
4.7111
4.62807
4.52104
4.33583
4.15891
4.00792
3.84369
3.67046
3.50347
3.35643
3.24566
3.15859
3.08473
3.00707
2.91279
2.8119
2.71039
2.62686
2.55496
2.47319
2.39358
2.31469
2.24467
2.18211
2.1241
2.0674
2.00942
1.95189
1.88322
1.81085
1.75272
1.70555
1.67872
1.65038
1.6112
1.5559
1.4958
1.44356
1.40936
1.38716
1.3671
1.34751
1.32309
1.28592
1.23651
1.18742
1.16706
1.16201
1.15386
1.15408
1.16227
1.16143
1.16269
1.18681
1.22526
1.27844
1.39638
3.71529
3.72041
3.70476
3.67336
3.53259
3.26011
2.98099
2.69219
2.35585
2.14781
1.99426
1.79601
1.60583
1.46103
1.39146
1.30969
1.34967
1.71639
2.61992
3.43665
3.63155
3.52494
3.32181
3.12165
2.97258
2.87256
2.77968
2.69218
2.59663
2.49504
2.38365
2.32363
2.27556
2.21372
2.12893
2.13835
2.30961
2.78227
3.48452
4.10177
4.31783
4.36126
4.29952
4.1552
3.97154
3.79438
3.64434
3.51864
3.38777
3.26951
3.17037
3.07103
2.96715
2.85885
2.75868
2.67254
2.59763
2.52282
2.44223
2.38149
2.32484
2.25191
2.16377
2.0859
2.04563
2.01622
1.96843
1.90912
1.84633
1.76682
1.69453
1.65573
1.6293
1.59756
1.55689
1.50305
1.45102
1.4117
1.38416
1.36619
1.3493
1.32705
1.30094
1.26837
1.23389
1.23446
1.25397
1.3021
1.3899
1.47453
1.52176
1.58806
1.6376
1.6564
1.69625
1.72093
3.72501
3.72676
3.72026
3.70177
3.65119
3.49815
3.25489
3.01236
2.68248
2.43563
2.24345
2.06181
1.84131
1.69448
1.59456
1.70658
2.31752
3.37574
4.09737
4.07327
3.89425
3.64716
3.40971
3.21178
3.06083
2.93334
2.80961
2.69238
2.57981
2.4683
2.35429
2.28332
2.21883
2.14052
2.05084
1.98574
1.90639
1.9166
2.06882
2.59194
3.22677
3.81771
3.94004
3.88457
3.83615
3.71528
3.57337
3.48926
3.42042
3.3208
3.19233
3.06467
2.95109
2.85281
2.75161
2.64642
2.54616
2.46849
2.4249
2.38237
2.31426
2.23048
2.15239
2.08579
2.01312
1.94492
1.89882
1.8559
1.80938
1.76116
1.70854
1.64794
1.59773
1.56772
1.54147
1.50731
1.47373
1.44081
1.40821
1.39296
1.387
1.38857
1.41618
1.45795
1.52015
1.60184
1.69017
1.78643
1.8697
1.8928
1.91774
1.94133
1.94038
1.93309
1.92557
1.89384
3.73132
3.72736
3.72717
3.72761
3.71035
3.63606
3.48059
3.27449
3.02306
2.71248
2.50098
2.30617
2.0795
1.98659
2.23228
3.16067
4.37415
4.77297
4.65419
4.3619
4.05958
3.79912
3.56906
3.3702
3.20097
3.04614
2.89764
2.75321
2.61684
2.48973
2.3694
2.27915
2.19706
2.11271
2.01459
1.93529
1.86275
1.79879
1.74068
1.77018
1.93652
2.37497
2.90709
3.3963
3.70048
3.68534
3.61704
3.4869
3.34268
3.21862
3.09407
2.99427
2.92963
2.86025
2.76036
2.65157
2.55717
2.45827
2.36565
2.32107
2.28554
2.23401
2.16723
2.09607
2.01539
1.92324
1.87422
1.8504
1.81972
1.77528
1.71335
1.64419
1.5972
1.57679
1.55585
1.53233
1.51329
1.5112
1.53265
1.58393
1.66797
1.79629
1.90041
1.98528
2.06822
2.10432
2.13524
2.13457
2.08501
2.03275
2.01479
1.99901
1.98087
1.95882
1.94206
1.89826
3.71444
3.70414
3.7021
3.71062
3.71453
3.69017
3.61019
3.45593
3.25342
2.98794
2.76714
2.49824
2.53956
3.06756
4.29694
5.46694
5.60753
5.39176
5.00819
4.6285
4.29431
4.00598
3.75475
3.53746
3.34848
3.17574
3.00981
2.84495
2.68397
2.52268
2.37602
2.26986
2.18157
2.09518
2.01198
1.9378
1.85616
1.7775
1.71104
1.64975
1.59803
1.61955
1.77782
2.15591
2.69485
3.13838
3.42389
3.40315
3.321
3.1873
3.05436
2.93628
2.83271
2.77659
2.73807
2.67454
2.57402
2.45919
2.34914
2.27521
2.22418
2.16738
2.1113
2.06158
2.0062
1.94106
1.88372
1.83383
1.78837
1.7562
1.72202
1.66612
1.63231
1.62396
1.64034
1.69833
1.80565
1.94308
2.08146
2.19406
2.27211
2.32888
2.35803
2.40374
2.40945
2.39805
2.36345
2.29537
2.20142
2.14902
2.12179
2.0911
2.04514
1.99886
1.96836
1.89748
3.80436
3.78878
3.73145
3.71714
3.7252
3.72577
3.69081
3.59795
3.41437
3.21318
3.00678
3.21308
4.27923
5.75514
6.43479
6.36928
6.02128
5.61412
5.23122
4.87003
4.52834
4.21275
3.93336
3.69402
3.48747
3.30054
3.12323
2.95017
2.77928
2.60432
2.44419
2.31218
2.19684
2.08638
1.99674
1.92903
1.85445
1.78316
1.70732
1.63188
1.57407
1.51896
1.48726
1.51031
1.66355
2.00707
2.52487
2.85455
3.044
3.07491
3.04234
2.96475
2.84224
2.7536
2.68968
2.61793
2.53157
2.43858
2.33422
2.24887
2.18998
2.13696
2.09513
2.05654
2.00602
1.9381
1.8776
1.84005
1.80688
1.78296
1.78966
1.83296
1.91779
2.04336
2.17592
2.33892
2.47241
2.59592
2.63017
2.59248
2.52004
2.48456
2.47023
2.46265
2.44373
2.40704
2.3549
2.27948
2.17868
2.12811
2.10351
2.07022
2.0442
2.02543
2.00103
1.92525
3.62653
3.62605
3.61901
3.67441
3.74126
3.76081
3.73199
3.66304
3.52478
3.53545
4.16144
5.76952
7.30943
7.69122
7.44874
6.85025
6.29183
5.82475
5.42505
5.06159
4.71759
4.39467
4.10345
3.84841
3.62306
3.4161
3.21935
3.02954
2.84338
2.6608
2.49883
2.36006
2.24106
2.13825
2.04555
1.94723
1.84601
1.75747
1.6828
1.63915
1.57547
1.50102
1.45066
1.41568
1.39599
1.42309
1.55488
1.84436
2.17903
2.51913
2.70236
2.80849
2.79348
2.76187
2.71566
2.63925
2.54011
2.43663
2.32322
2.22619
2.15831
2.11089
2.08331
2.05737
2.02242
1.96226
1.89826
1.90655
1.96744
2.10524
2.31108
2.53118
2.7034
2.80393
2.87412
2.94996
2.9542
2.92134
2.85436
2.77343
2.69956
2.63104
2.56992
2.50924
2.45355
2.38992
2.32342
2.24457
2.15795
2.11437
2.09255
2.0579
2.02414
1.9996
1.97413
1.9032
2.58112
3.35073
3.6835
3.75829
3.75351
3.71231
3.68341
3.69355
3.9542
5.30568
7.59821
8.46925
8.3946
8.10784
7.634
7.10583
6.57483
6.08177
5.63876
5.24401
4.88391
4.54711
4.23614
3.95642
3.70525
3.47641
3.26847
3.08164
2.90453
2.72677
2.55999
2.40466
2.25402
2.13118
2.04451
1.96696
1.88137
1.79316
1.70767
1.62723
1.53848
1.46851
1.42006
1.38829
1.36004
1.32607
1.27114
1.27325
1.34938
1.60791
1.96926
2.36061
2.50639
2.58278
2.61179
2.59567
2.54115
2.4545
2.32849
2.22936
2.16853
2.12819
2.11024
2.11129
2.13232
2.19168
2.30485
2.49103
2.7109
2.95443
3.09522
3.10834
3.12852
3.11152
3.08647
3.05148
2.997
2.90878
2.8129
2.73174
2.67476
2.6326
2.59763
2.55627
2.50411
2.44142
2.36009
2.25673
2.16677
2.12618
2.09741
2.05698
2.00885
1.97646
1.94988
1.88094
1.37603
2.2915
3.29194
3.64368
3.62144
3.63752
3.83307
4.61152
6.51134
8.87543
9.94047
9.73613
8.97766
8.2394
7.74015
7.30033
6.82559
6.32378
5.83793
5.39756
5.00618
4.65543
4.33837
4.05143
3.79078
3.55183
3.32931
3.11795
2.92586
2.77442
2.63824
2.4752
2.31155
2.18776
2.08244
1.97909
1.88723
1.80912
1.72506
1.62365
1.53406
1.48068
1.43492
1.38793
1.33504
1.28344
1.23121
1.20218
1.18438
1.1944
1.28147
1.51124
1.8598
2.13471
2.33061
2.4217
2.39987
2.32338
2.30314
2.28318
2.27274
2.31421
2.43757
2.65233
2.8519
3.02205
3.19681
3.38821
3.5139
3.54184
3.50752
3.42514
3.37211
3.3194
3.24411
3.12751
2.97583
2.85203
2.75678
2.68983
2.64721
2.6122
2.57128
2.51539
2.45158
2.39153
2.33336
2.27406
2.20546
2.14473
2.09439
2.04927
2.00295
1.96482
1.93212
1.86784
1.02698
1.25595
2.05079
3.04197
3.44171
4.24588
5.75469
7.73876
9.3765
10.0169
9.95252
9.73222
9.26941
8.60849
8.00365
7.46306
6.95226
6.46425
5.99528
5.54371
5.11734
4.72902
4.38757
4.09144
3.83121
3.59716
3.38262
3.18225
2.99361
2.80023
2.59831
2.47289
2.40208
2.30371
2.18593
2.07038
1.94971
1.80538
1.71043
1.66371
1.61673
1.55955
1.48976
1.41558
1.33322
1.26361
1.22173
1.19986
1.17486
1.14491
1.11819
1.13395
1.22441
1.40469
1.65359
1.93382
2.18209
2.27579
2.43861
2.64902
2.85389
3.14333
3.47586
3.65252
3.66393
3.67165
3.6711
3.67629
3.65666
3.6106
3.53382
3.42246
3.3062
3.23797
3.16538
3.068
2.97499
2.87558
2.78537
2.71815
2.66996
2.62343
2.5644
2.49214
2.41531
2.34994
2.2967
2.24398
2.19807
2.15161
2.10295
2.05944
2.01673
1.97305
1.94064
1.88834
1.00056
1.01411
1.18846
1.93254
3.66103
5.97686
8.23653
10.0276
11.018
10.6116
9.91546
9.62216
9.32411
8.83893
8.193
7.54708
6.97877
6.48615
6.03382
5.59212
5.16101
4.75969
4.40574
4.10311
3.84289
3.61182
3.39835
3.19219
2.98764
2.79204
2.63375
2.50147
2.3552
2.22213
2.09769
1.97728
1.8696
1.79627
1.73975
1.6616
1.57556
1.49806
1.42552
1.35336
1.28713
1.23336
1.19187
1.16551
1.13749
1.1099
1.08026
1.06686
1.04597
1.05677
1.12877
1.27754
1.60427
2.29166
2.90803
3.40665
3.80172
4.13868
4.30409
4.2911
4.16578
4.05976
3.99482
3.87
3.73119
3.60679
3.48207
3.35682
3.22154
3.13719
3.07229
3.00601
2.94947
2.88106
2.81351
2.75214
2.69055
2.6281
2.56101
2.48396
2.40122
2.32764
2.26962
2.22729
2.19116
2.14848
2.10764
2.06638
2.02527
1.9829
1.93896
1.86537
1.00056
1.01411
1.18846
1.93255
3.66101
5.97685
8.23655
10.0276
11.018
10.6116
9.91547
9.62216
9.3241
8.83892
8.19298
7.54708
6.97876
6.48614
6.03382
5.59212
5.16102
4.7597
4.40575
4.1031
3.84288
3.61181
3.39834
3.19218
2.98765
2.79208
2.63378
2.50147
2.3552
2.22213
2.0977
1.97731
1.86959
1.79621
1.73971
1.66158
1.57553
1.49807
1.42556
1.35317
1.28708
1.23397
1.19238
1.16573
1.13753
1.10992
1.08023
1.0669
1.04719
1.05478
1.11715
1.34366
1.79549
2.34156
2.88984
3.37894
3.84807
4.19615
4.26174
4.22535
4.1755
4.07649
3.90766
3.85648
3.81503
3.68781
3.52778
3.40048
3.25539
3.13827
3.06367
3.00475
2.95092
2.88246
2.8113
2.74749
2.68489
2.62138
2.55401
2.48028
2.4039
2.33433
2.27135
2.22021
2.18945
2.16313
2.12509
2.07377
2.02737
1.98354
1.93943
1.86534
1.02698
1.25596
2.05079
3.04199
3.4417
4.24587
5.75471
7.73876
9.37651
10.0169
9.95252
9.73222
9.2694
8.60849
8.00364
7.46306
6.95226
6.46425
5.99528
5.54371
5.11734
4.72901
4.38757
4.09145
3.83122
3.59718
3.38263
3.18226
2.99362
2.80025
2.59831
2.47284
2.40205
2.30371
2.18594
2.07038
1.94971
1.80537
1.71045
1.66371
1.61668
1.55955
1.48981
1.41515
1.33254
1.26472
1.22374
1.20093
1.17479
1.14458
1.11854
1.13356
1.22587
1.40536
1.65731
1.92852
2.21218
2.30289
2.4246
2.61294
2.89466
3.24997
3.4633
3.58706
3.6626
3.64218
3.59813
3.59825
3.64404
3.63691
3.59493
3.49976
3.34526
3.20803
3.11866
3.04632
2.98279
2.91272
2.82432
2.7364
2.66504
2.6024
2.53892
2.47677
2.41848
2.35969
2.30119
2.25428
2.20446
2.14443
2.09759
2.06093
2.02828
1.98417
1.9384
1.86961
1.37603
2.2915
3.29194
3.64368
3.62144
3.63752
3.83307
4.61153
6.51134
8.87543
9.94047
9.73613
8.97765
8.23939
7.74015
7.30032
6.82559
6.32378
5.83793
5.39757
5.00618
4.65544
4.33837
4.05143
3.79078
3.55183
3.32931
3.11795
2.92587
2.77443
2.63825
2.47522
2.31156
2.18776
2.08244
1.97908
1.88721
1.80913
1.72506
1.62363
1.53401
1.48067
1.43494
1.38774
1.33498
1.28372
1.23147
1.20203
1.18441
1.19434
1.28437
1.51059
1.85301
2.14398
2.342
2.40244
2.38317
2.34034
2.30794
2.27117
2.28047
2.3482
2.45986
2.62099
2.81782
3.03871
3.23505
3.36769
3.48117
3.5714
3.55584
3.47175
3.34323
3.26744
3.19909
3.11379
3.00011
2.88901
2.78014
2.68801
2.63961
2.59721
2.5512
2.50116
2.45578
2.40574
2.34562
2.26769
2.19149
2.13746
2.0936
2.0489
2.01023
1.97372
1.93235
1.86408
2.58112
3.35073
3.6835
3.75829
3.75351
3.71231
3.68341
3.69355
3.9542
5.30568
7.59821
8.46924
8.3946
8.10784
7.634
7.10583
6.57484
6.08178
5.63877
5.24401
4.88391
4.54711
4.23614
3.95642
3.70524
3.47641
3.26848
3.08165
2.90453
2.72677
2.55999
2.40466
2.25403
2.13117
2.04449
1.96695
1.88137
1.79318
1.70767
1.62723
1.53845
1.46848
1.41999
1.38829
1.3601
1.32583
1.27087
1.27297
1.34876
1.61092
1.97055
2.35791
2.50778
2.59132
2.61055
2.58994
2.53424
2.45473
2.3373
2.2228
2.16758
2.14016
2.12142
2.10765
2.1263
2.18973
2.3276
2.50396
2.69446
2.93368
3.10493
3.10134
3.09905
3.079
3.07253
3.05621
3.01909
2.94335
2.83474
2.71292
2.65151
2.61385
2.58246
2.55563
2.51979
2.46304
2.36955
2.24031
2.15751
2.12914
2.09869
2.05848
2.02047
1.98676
1.95456
1.88309
3.62653
3.62605
3.61901
3.67441
3.74126
3.76081
3.732
3.66304
3.52478
3.53545
4.16144
5.76952
7.30943
7.69122
7.44874
6.85025
6.29183
5.82475
5.42505
5.06159
4.71759
4.39467
4.10345
3.8484
3.62306
3.4161
3.21935
3.02954
2.84338
2.6608
2.49883
2.36006
2.24105
2.13824
2.04554
1.94723
1.84601
1.75748
1.6828
1.6392
1.57552
1.50102
1.45057
1.4157
1.39605
1.42275
1.55576
1.84393
2.17786
2.52473
2.69925
2.80742
2.79425
2.7633
2.71283
2.63596
2.53822
2.43732
2.32479
2.21456
2.16011
2.12141
2.0876
2.05517
2.01587
1.95719
1.90905
1.91374
1.96131
2.09101
2.29719
2.51748
2.67718
2.79013
2.88835
2.97205
2.97993
2.94616
2.86506
2.74334
2.67395
2.63043
2.57776
2.52023
2.46917
2.40396
2.32712
2.23224
2.15009
2.11969
2.09566
2.05756
2.02911
2.0034
1.97541
1.9034
3.80436
3.78878
3.73145
3.71714
3.7252
3.72577
3.69081
3.59795
3.41437
3.21318
3.00678
3.21308
4.27924
5.75514
6.43479
6.36928
6.02129
5.61412
5.23122
4.87003
4.52834
4.21274
3.93336
3.69402
3.48747
3.30054
3.12323
2.95017
2.77928
2.60431
2.44419
2.31218
2.19684
2.08638
1.99674
1.92903
1.85445
1.78316
1.70731
1.63187
1.57407
1.51894
1.48723
1.51031
1.66353
2.00693
2.52592
2.8523
3.04556
3.07539
3.0413
2.96135
2.84181
2.75452
2.68786
2.61657
2.5343
2.44271
2.33271
2.24422
2.19007
2.14112
2.09581
2.05288
1.99808
1.93461
1.88466
1.84594
1.80804
1.78146
1.78687
1.83214
1.91591
2.04159
2.18828
2.35802
2.48327
2.58559
2.61203
2.56406
2.50656
2.48475
2.4853
2.47491
2.4475
2.40898
2.35102
2.26326
2.17075
2.13486
2.10931
2.0712
2.04509
2.0275
2.0011
1.92447
3.71444
3.70414
3.7021
3.71062
3.71453
3.69017
3.61019
3.45593
3.25342
2.98794
2.76714
2.49824
2.53956
3.06757
4.29694
5.46694
5.60753
5.39176
5.00819
4.6285
4.29431
4.00598
3.75475
3.53746
3.34848
3.17574
3.00981
2.84495
2.68397
2.52268
2.37602
2.26986
2.18157
2.09518
2.01198
1.93781
1.85616
1.7775
1.71103
1.64975
1.59802
1.61955
1.77775
2.15628
2.69353
3.14012
3.42421
3.40274
3.32082
3.18767
3.05172
2.93224
2.83212
2.77831
2.7399
2.67613
2.57522
2.45817
2.34754
2.27638
2.22373
2.16729
2.11089
2.05574
1.99891
1.94263
1.89065
1.83767
1.78945
1.75525
1.71932
1.66466
1.63607
1.62563
1.64143
1.69531
1.79673
1.92438
2.06926
2.18704
2.26872
2.33936
2.38283
2.42686
2.42002
2.39528
2.3509
2.28079
2.20259
2.15765
2.12882
2.09529
2.04362
1.99116
1.95849
1.89049
3.73132
3.72736
3.72717
3.72761
3.71035
3.63606
3.48059
3.27449
3.02306
2.71248
2.50098
2.30617
2.0795
1.98659
2.23228
3.16067
4.37415
4.77297
4.65419
4.3619
4.05958
3.79912
3.56906
3.3702
3.20097
3.04614
2.89764
2.75321
2.61684
2.48973
2.3694
2.27915
2.19706
2.11271
2.01459
1.93529
1.86275
1.79878
1.74067
1.77018
1.93651
2.37493
2.90705
3.39655
3.70011
3.68538
3.61717
3.48595
3.34262
3.21864
3.09313
2.99503
2.93137
2.86138
2.76032
2.65204
2.55727
2.45557
2.36575
2.32289
2.28526
2.23269
2.16571
2.09282
2.01182
1.92687
1.88211
1.85379
1.8167
1.76896
1.70829
1.6432
1.59797
1.57646
1.55586
1.53355
1.51234
1.50791
1.53168
1.59185
1.6797
1.80644
1.90897
1.99143
2.05946
2.09011
2.12422
2.12826
2.08982
2.04015
2.0209
2.00068
1.97905
1.95468
1.93845
1.89653
3.72501
3.72676
3.72026
3.70177
3.65119
3.49815
3.25489
3.01236
2.68248
2.43563
2.24345
2.06181
1.84131
1.69448
1.59456
1.70658
2.31752
3.37574
4.09737
4.07327
3.89425
3.64716
3.40971
3.21178
3.06083
2.93334
2.80961
2.69238
2.57981
2.4683
2.35429
2.28332
2.21883
2.14052
2.05084
1.98574
1.90639
1.9166
2.06882
2.59193
3.2268
3.81763
3.94012
3.88458
3.83608
3.71572
3.57328
3.48928
3.42044
3.32086
3.19242
3.065
2.95168
2.85319
2.75172
2.64675
2.54564
2.46759
2.42517
2.38302
2.31434
2.22946
2.15148
2.08675
2.01698
1.94991
1.90137
1.85625
1.80838
1.75961
1.70777
1.65027
1.59948
1.56754
1.54201
1.50888
1.47396
1.44088
1.40901
1.39474
1.38974
1.38865
1.4131
1.45016
1.50757
1.59175
1.68676
1.7923
1.87432
1.90215
1.92343
1.93402
1.93508
1.92928
1.9249
1.89459
3.71529
3.72041
3.70476
3.67336
3.53259
3.26011
2.98099
2.69219
2.35585
2.14781
1.99426
1.79601
1.60583
1.46103
1.39146
1.30969
1.34967
1.71639
2.61991
3.43665
3.63155
3.52494
3.32181
3.12165
2.97258
2.87256
2.77968
2.69218
2.59663
2.49504
2.38365
2.32363
2.27556
2.21372
2.12893
2.13835
2.30961
2.78227
3.48451
4.10179
4.31783
4.36125
4.29953
4.15518
3.97155
3.7943
3.64431
3.51869
3.38776
3.26959
3.17041
3.07109
2.96737
2.85904
2.75869
2.67219
2.59717
2.52303
2.44277
2.38174
2.32438
2.25094
2.16365
2.08779
2.04698
2.01519
1.96623
1.90722
1.84503
1.76699
1.69603
1.65756
1.62946
1.59686
1.55582
1.50179
1.45008
1.41159
1.38493
1.36709
1.34966
1.32633
1.29975
1.26692
1.23313
1.23447
1.25557
1.30576
1.39327
1.47428
1.52031
1.58382
1.63188
1.65445
1.69965
1.72406
3.72784
3.72475
3.69744
3.55536
3.29275
2.97019
2.63959
2.28883
2.07255
1.90713
1.71414
1.45908
1.34667
1.2983
1.2392
1.15566
1.07524
1.09772
1.35459
2.1425
3.01112
3.3701
3.32184
3.17125
2.9915
2.87629
2.79317
2.73233
2.6673
2.5863
2.47342
2.42302
2.38762
2.39904
2.60162
3.14387
3.90646
4.37466
4.74756
4.7111
4.62807
4.52104
4.33583
4.1589
4.00793
3.84368
3.6705
3.50345
3.35642
3.24571
3.15857
3.08473
3.00712
2.91279
2.81179
2.71025
2.62695
2.55517
2.47338
2.39374
2.31445
2.24449
2.18269
2.12455
2.06665
2.00782
1.95019
1.88229
1.81051
1.75388
1.70695
1.67862
1.64965
1.61038
1.55508
1.49509
1.4431
1.40943
1.38753
1.36745
1.34741
1.32269
1.28545
1.23625
1.18774
1.16753
1.16247
1.15414
1.15403
1.16094
1.15972
1.16161
1.18749
1.22839
1.2832
1.39959
3.75516
3.7312
3.5896
3.32623
2.9702
2.53307
2.20566
1.99242
1.78241
1.53532
1.35292
1.25132
1.17687
1.10207
1.0484
0.995206
0.950546
0.942108
0.960047
1.17888
1.87955
2.83138
3.28728
3.2422
3.11896
2.99647
2.90624
2.83898
2.79357
2.73881
2.65883
2.65683
2.82204
3.34981
4.28601
4.92463
5.31756
5.29983
5.23351
5.05071
4.762
4.48036
4.26932
4.11133
3.97783
3.83076
3.67597
3.51811
3.38617
3.28822
3.20254
3.10985
3.00649
2.91575
2.83459
2.73963
2.64001
2.57579
2.52341
2.44858
2.35632
2.26464
2.19673
2.13903
2.07942
2.0219
1.96445
1.89538
1.80859
1.76361
1.75006
1.72535
1.69101
1.64101
1.55932
1.48979
1.46645
1.44635
1.42297
1.39586
1.36621
1.33014
1.28335
1.23151
1.17926
1.15299
1.14111
1.12465
1.10597
1.08883
1.05974
1.03186
1.01724
1.0079
1.01515
1.0577
3.74695
3.62307
3.32431
2.95589
2.46767
2.06465
1.85725
1.6412
1.37883
1.25023
1.19824
1.10566
1.00391
0.985071
0.983516
0.971939
0.946665
0.93789
0.94615
0.967754
1.13967
1.73259
2.83557
3.20992
3.21413
3.19897
3.14277
3.00183
2.92262
2.91728
3.05238
3.5506
4.42483
5.35381
5.80651
5.70908
5.56996
5.42879
5.19023
4.93824
4.69402
4.47997
4.30933
4.13857
3.9815
3.83058
3.70863
3.60068
3.49431
3.38833
3.26112
3.13073
3.01403
2.91358
2.82991
2.74867
2.6743
2.59949
2.5076
2.41225
2.31854
2.24844
2.2036
2.1603
2.11101
2.0583
2.00087
1.92916
1.85068
1.7914
1.74108
1.69955
1.65886
1.61076
1.5542
1.50212
1.45618
1.42218
1.39369
1.36552
1.3361
1.30451
1.26702
1.22062
1.17577
1.14987
1.13211
1.11268
1.09041
1.06673
1.04022
1.0204
1.00042
0.969872
0.940224
0.918215
3.66373
3.32591
2.87852
2.40156
1.91573
1.65057
1.46103
1.24946
1.08915
1.02836
0.979357
0.920213
0.911189
0.921722
0.946753
0.947532
0.946261
0.960655
0.986017
1.01014
1.03576
1.14338
1.72115
2.65965
3.15977
3.2672
3.2717
3.24405
3.30429
3.69483
4.57531
5.61549
6.16395
6.35944
6.28479
6.06456
5.73415
5.37589
5.11295
4.90046
4.69673
4.49585
4.32216
4.16372
4.00624
3.85929
3.74777
3.64091
3.52286
3.39926
3.26785
3.14284
3.03187
2.93418
2.84785
2.76774
2.69601
2.61622
2.51981
2.41608
2.32432
2.26436
2.21773
2.16875
2.11717
2.06215
1.99824
1.92223
1.85094
1.79416
1.74544
1.70447
1.66471
1.62098
1.57428
1.5218
1.46971
1.42886
1.39645
1.36695
1.33706
1.30495
1.26858
1.22962
1.19395
1.16202
1.13376
1.1091
1.08488
1.06026
1.03686
1.01756
0.997487
0.968191
0.934525
0.899798
3.35946
2.75566
2.22702
1.69722
1.43477
1.31777
1.1646
1.0254
0.985204
0.957584
0.923183
0.908042
0.91476
0.939779
0.952766
0.962276
0.976203
1.00234
1.02694
1.04238
1.04084
1.04531
1.11267
1.61187
2.40804
2.92125
3.34847
3.97521
4.73852
5.81299
6.32034
6.58325
6.62135
6.36762
6.1
5.839
5.60982
5.41038
5.2181
4.9968
4.767
4.55802
4.39458
4.25649
4.12391
4.00002
3.88208
3.74758
3.59892
3.45199
3.31204
3.18855
3.08162
2.98812
2.9085
2.83847
2.76671
2.67839
2.5698
2.45758
2.37084
2.31092
2.25866
2.20712
2.15539
2.09958
2.03368
1.95702
1.88235
1.82238
1.77831
1.74329
1.71026
1.6745
1.63138
1.57644
1.51402
1.45915
1.4196
1.38847
1.3599
1.33156
1.30296
1.27271
1.23506
1.18767
1.1455
1.11652
1.09327
1.07318
1.05634
1.03958
1.01801
0.983182
0.941639
0.901141
2.65536
1.72703
1.10442
0.775332
0.738916
0.716424
0.694487
0.701809
0.757489
0.832541
0.894902
0.951164