/*--------------------------------*- C++ -*----------------------------------*\
  =========                 |
  \\      /  F ield         | OpenFOAM: The Open Source CFD Toolbox
   \\    /   O peration     | Website:  https://openfoam.org
    \\  /    A nd           | Version:  7
     \\/     M anipulation  |
\*---------------------------------------------------------------------------*/
FoamFile
{
    version     2.0;
    format      ascii;
    class       volScalarField;
    location    "1";
    object      rho;
}
// * * * * * * * * * * * * * * * * * * * * * * * * * * * * * * * * * * * * * //

dimensions      [1 -3 0 0 0 0 0];

internalField   nonuniform List<scalar> 
4608
(
1.40001
1.40001
1.40001
1.40001
1.40001
1.40001
1.40001
1.40001
1.40001
1.40001
1.40001
1.40001
1.40001
1.40001
1.40001
1.40001
1.40001
1.40001
1.40001
1.40001
1.40001
1.40001
1.40001
1.40001
1.40001
1.40001
1.40001
1.40001
1.40001
1.40001
1.40001
1.40001
1.40001
1.40001
1.40001
1.40001
1.40001
1.40001
1.40001
1.40001
1.40001
1.40001
1.40001
1.40001
1.40001
1.40001
1.40001
1.40001
1.40001
1.40001
1.40001
1.40001
1.40001
1.40001
1.40001
1.40001
1.40001
1.40001
1.40001
1.40001
1.40001
1.40001
1.40001
1.40001
1.40001
1.40001
1.40001
1.40001
1.40001
1.40001
1.40001
1.40001
1.40001
1.40001
1.40001
1.40001
1.40001
1.40001
1.40001
1.40001
1.40001
1.40001
1.40001
1.40001
1.40001
1.40001
1.40001
1.40001
1.40001
1.40001
1.40001
1.40001
1.40001
1.40001
1.40001
1.40001
1.40001
1.40001
1.40001
1.40001
1.40001
1.40001
1.40001
1.40001
1.40001
1.40001
1.40001
1.40001
1.40001
1.40001
1.40001
1.40001
1.40001
1.40001
1.40001
1.40001
1.40001
1.40001
1.40001
1.40001
1.40001
1.40001
1.40001
1.40001
1.40001
1.40001
1.40001
1.40001
1.40001
1.40001
1.40001
1.40001
1.40001
1.40001
1.40001
1.40001
1.40001
1.40001
1.40001
1.40001
1.40001
1.40001
1.40001
1.40001
1.40001
1.40001
1.40001
1.40001
1.40001
1.40001
1.40001
1.40001
1.40001
1.40001
1.40001
1.40001
1.40001
1.40001
1.40001
1.40001
1.40001
1.40001
1.40001
1.40001
1.40001
1.40001
1.40001
1.40001
1.40001
1.40001
1.40001
1.40001
1.40001
1.40001
1.40001
1.40001
1.40001
1.40001
1.40001
1.40001
1.40001
1.40001
1.40001
1.40001
1.40001
1.40001
1.40001
1.40001
1.40001
1.40001
1.40001
1.40001
1.40001
1.40001
1.40001
1.40001
1.40001
1.40001
1.40001
1.40001
1.40001
1.40001
1.40001
1.40001
1.40001
1.40001
1.40001
1.40001
1.40001
1.40001
1.40001
1.40001
1.40001
1.40001
1.40001
1.40001
1.40001
1.40001
1.40001
1.40001
1.40001
1.40001
1.40001
1.40001
1.40001
1.40001
1.40001
1.40001
1.40001
1.40001
1.40001
1.40001
1.40001
1.40001
1.40001
1.40001
1.40001
1.40001
1.40001
1.40001
1.40001
1.40001
1.40001
1.40001
1.40001
1.40001
1.40001
1.40001
1.40001
1.40001
1.40001
1.40001
1.40001
1.40001
1.40001
1.40001
1.40001
1.40001
1.40001
1.40001
1.40001
1.40001
1.40001
1.40001
1.40001
1.40001
1.40001
1.40001
1.40001
1.40001
1.40001
1.40001
1.40001
1.40001
1.40001
1.40001
1.40001
1.40001
1.40001
1.40001
1.40001
1.40001
1.40001
1.40001
1.40001
1.40001
1.40001
1.40001
1.40001
1.40001
1.40001
1.40001
1.40001
1.40001
1.40001
1.40001
1.40001
1.40001
1.40001
1.40001
1.40001
1.40001
1.40001
1.40001
1.40001
1.40001
1.40001
1.40001
1.40001
1.40001
1.40001
1.40001
1.40001
1.40001
1.40001
1.40001
1.40001
1.40001
1.40001
1.40001
1.40001
1.40001
1.40001
1.40001
1.40001
1.40001
1.40001
1.40001
1.40001
1.40001
1.40001
1.40001
1.40001
1.40001
1.40001
1.40001
1.40001
1.40001
1.40001
1.40001
1.40001
1.40001
1.40001
1.40001
1.40001
1.40001
1.40001
1.40001
1.40001
1.40001
1.40001
1.40001
1.40001
1.40001
1.40001
1.40001
1.40001
1.40001
1.40001
1.40001
1.40001
1.40001
1.40001
1.40001
1.40001
1.40001
1.40001
1.40001
1.40001
1.40001
1.40001
1.40001
1.40001
1.40001
1.40001
1.40001
1.40001
1.40001
1.40001
1.40001
1.40001
1.40001
1.40001
1.40001
1.40001
1.40001
1.40001
1.40001
1.40001
1.40001
1.40001
1.40001
1.40001
1.40001
1.40001
1.40001
1.40001
1.40001
1.40001
1.40001
1.40001
1.40001
1.40001
1.40001
1.40001
1.40001
1.40001
1.40001
1.40001
1.40001
1.40001
1.40001
1.40001
1.40001
1.40001
1.40001
1.40001
1.40001
1.40001
1.40001
1.40001
1.40001
1.40001
1.40001
1.40001
1.40001
1.40001
1.40001
1.40001
1.40001
1.40001
1.40001
1.40001
1.40001
1.40001
1.40001
1.40001
1.40001
1.40001
1.40001
1.40001
1.40001
1.40001
1.40001
1.40001
1.40001
1.40001
1.40001
1.40001
1.40001
1.40001
1.40001
1.40001
1.40001
1.40001
1.40001
1.40001
1.40001
1.40001
1.40001
1.40001
1.40001
1.40001
1.40001
1.40001
1.40001
1.40001
1.40001
1.40001
1.40001
1.40001
1.40001
1.40001
1.40001
1.40001
1.40001
1.40001
1.40001
1.40001
1.40001
1.40001
1.40001
1.40001
1.40001
1.40001
1.40001
1.40001
1.40001
1.40001
1.40001
1.40001
1.40001
1.40001
1.40001
1.40001
1.40001
1.40001
1.40001
1.40001
1.40001
1.40001
1.40001
1.40001
1.40001
1.40001
1.40001
1.40001
1.40001
1.40001
1.40001
1.40001
1.40001
1.40001
1.40001
1.40001
1.40001
1.40001
1.40001
1.40001
1.40001
1.40001
1.40001
1.40001
1.40001
1.40001
1.40001
1.40001
1.40001
1.40001
1.40001
1.40001
1.40001
1.40001
1.40001
1.40001
1.40001
1.40001
1.40001
1.40001
1.40001
1.40001
1.40001
1.40001
1.40001
1.40001
1.40001
1.40001
1.40001
1.40001
1.40001
1.40001
1.40001
1.40001
1.40001
1.40001
1.40001
1.40001
1.40001
1.40001
1.40001
1.40001
1.40001
1.40001
1.40001
1.40001
1.40001
1.40001
1.40001
1.40001
1.40001
1.40001
1.40001
1.40001
1.40001
1.40001
1.40001
1.40001
1.40001
1.40001
1.40001
1.40001
1.40001
1.40001
1.40001
1.40001
1.40001
1.40001
1.40001
1.40001
1.40001
1.40001
1.40001
1.40001
1.40001
1.40001
1.40001
1.40001
1.40001
1.40001
1.40001
1.40001
1.40001
1.40001
1.40001
1.40001
1.40001
1.40001
1.40001
1.40001
1.40001
1.40001
1.40001
1.40001
1.40001
1.40001
1.40001
1.40001
1.40001
1.40001
1.40001
1.40001
1.40001
1.40001
1.40001
1.40001
1.40001
1.40001
1.40001
1.40001
1.40001
1.40001
1.40001
1.40001
1.40001
1.40001
1.40001
1.40001
1.40001
1.40001
1.40001
1.40001
1.40001
1.40001
1.40001
1.40001
1.40001
1.40001
1.40001
1.40001
1.40001
1.40001
1.40001
1.40001
1.40001
1.40001
1.40001
1.40001
1.40001
1.40001
1.40001
1.40001
1.40001
1.40001
1.40001
1.40001
1.40001
1.40001
1.40001
1.40001
1.40001
1.40001
1.40001
1.40001
1.40001
1.40001
1.40001
1.40001
1.40001
1.40001
1.40001
1.40001
1.40001
1.40001
1.40001
1.40001
1.40001
1.40001
1.40001
1.40001
1.40001
1.40001
1.40001
1.40001
1.40001
1.40001
1.40001
1.40001
1.40001
1.40001
1.40001
1.40001
1.40001
1.40001
1.40001
1.40001
1.40001
1.40001
1.40001
1.40001
1.40001
1.40001
1.40001
1.40001
1.40001
1.40001
1.40001
1.40001
1.40001
1.40001
1.40001
1.40001
1.40001
1.40001
1.40001
1.40001
1.40001
1.40001
1.40001
1.40001
1.40001
1.40001
1.40001
1.40001
1.40001
1.40001
1.40001
1.40001
1.40001
1.40001
1.40001
1.40001
1.40001
1.40001
1.40001
1.40001
1.40001
1.40001
1.40001
1.40001
1.40001
1.40001
1.40001
1.40001
1.40001
1.40001
1.40001
1.40001
1.40001
1.40001
1.40001
1.40001
1.40001
1.40001
1.40001
1.40001
1.40001
1.40001
1.40001
1.67676
2.08368
2.54558
2.98574
3.43009
3.82902
4.11419
4.42869
4.43294
4.29194
4.01847
3.72466
3.45414
3.36222
3.3021
3.30925
3.33278
3.3552
3.37102
3.38449
3.40132
3.42119
3.42893
3.42871
1.40308
1.41749
1.47159
1.59332
1.7939
2.11554
2.50251
2.98859
3.37023
3.53502
3.63725
3.62831
3.57372
3.47502
3.41656
3.39426
3.38271
3.36881
3.36661
3.37426
3.38928
3.40306
3.415
3.41946
1.40001
1.39997
1.40003
1.40032
1.40311
1.42243
1.49618
1.70886
2.19271
2.89313
3.4189
3.71881
3.77934
3.71815
3.6067
3.44517
3.37981
3.35566
3.34533
3.35361
3.36434
3.37273
3.38418
3.40053
1.40001
1.4
1.4
1.4
1.39999
1.40004
1.39995
1.40149
1.4316
1.6299
2.18913
2.89429
3.51441
3.57503
3.53743
3.49539
3.43609
3.38791
3.36033
3.34176
3.33731
3.34113
3.34923
3.37137
1.40001
1.40001
1.4
1.4
1.4
1.4
1.4
1.4
1.39992
1.40094
1.43961
1.67114
2.32822
2.99532
3.42123
3.53954
3.51678
3.45519
3.40035
3.35584
3.31845
3.30492
3.31042
3.32536
1.40001
1.40001
1.40001
1.40001
1.40001
1.4
1.4
1.4
1.4
1.4
1.39993
1.4026
1.46095
1.82236
2.51541
3.1486
3.37369
3.38674
3.36728
3.3205
3.28919
3.28875
3.28267
3.28844
1.40001
1.40001
1.40001
1.40001
1.40001
1.40001
1.40001
1.40001
1.40001
1.4
1.4
1.39999
1.4
1.41119
1.5239
2.02464
2.76062
3.32366
3.38241
3.35848
3.33058
3.31969
3.29729
3.2828
1.40001
1.40001
1.40001
1.40001
1.40001
1.40001
1.40001
1.40001
1.40001
1.40001
1.40001
1.4
1.4
1.39998
1.40068
1.43761
1.67809
2.3722
3.01771
3.33958
3.38461
3.37479
3.34111
3.30508
1.40001
1.40001
1.40001
1.40001
1.40001
1.40001
1.40001
1.40001
1.40001
1.40001
1.40001
1.40001
1.4
1.4
1.4
1.40005
1.40572
1.52638
1.9952
2.76957
3.13986
3.32507
3.35654
3.33665
1.40001
1.40001
1.40001
1.40001
1.40001
1.40001
1.40001
1.40001
1.40001
1.40001
1.40001
1.40001
1.40001
1.4
1.4
1.4
1.39999
1.4018
1.43696
1.75251
2.41657
3.1404
3.31203
3.31347
1.40001
1.40001
1.40001
1.40001
1.40001
1.40001
1.40001
1.40001
1.40001
1.40001
1.40001
1.40001
1.40001
1.40001
1.40001
1.4
1.4
1.4
1.40014
1.41598
1.57764
2.20185
2.86792
3.28245
1.40001
1.40001
1.40001
1.40001
1.40001
1.40001
1.40001
1.40001
1.40001
1.40001
1.40001
1.40001
1.40001
1.40001
1.40001
1.40001
1.4
1.4
1.4
1.40004
1.40462
1.49635
1.98746
2.76772
1.40001
1.40001
1.40001
1.40001
1.40001
1.40001
1.40001
1.40001
1.40001
1.40001
1.40001
1.40001
1.40001
1.40001
1.40001
1.40001
1.40001
1.4
1.4
1.4
1.4
1.40177
1.46596
1.81554
1.40001
1.40001
1.40001
1.40001
1.40001
1.40001
1.40001
1.40001
1.40001
1.40001
1.40001
1.40001
1.40001
1.40001
1.40001
1.40001
1.40001
1.40001
1.40001
1.4
1.4
1.4
1.40137
1.42511
1.40001
1.40001
1.40001
1.40001
1.40001
1.40001
1.40001
1.40001
1.40001
1.40001
1.40001
1.40001
1.40001
1.40001
1.40001
1.40001
1.40001
1.40001
1.40001
1.40001
1.4
1.4
1.40002
1.4
1.40001
1.40001
1.40001
1.40001
1.40001
1.40001
1.40001
1.40001
1.40001
1.40001
1.40001
1.40001
1.40001
1.40001
1.40001
1.40001
1.40001
1.40001
1.40001
1.40001
1.40001
1.4
1.4
1.4
1.40001
1.40001
1.40001
1.40001
1.40001
1.40001
1.40001
1.40001
1.40001
1.40001
1.40001
1.40001
1.40001
1.40001
1.40001
1.40001
1.40001
1.40001
1.40001
1.40001
1.40001
1.4
1.4
1.4
1.40001
1.40001
1.40001
1.40001
1.40001
1.40001
1.40001
1.40001
1.40001
1.40001
1.40001
1.40001
1.40001
1.40001
1.40001
1.40001
1.40001
1.40001
1.40001
1.40001
1.4
1.4
1.40002
1.4
1.40001
1.40001
1.40001
1.40001
1.40001
1.40001
1.40001
1.40001
1.40001
1.40001
1.40001
1.40001
1.40001
1.40001
1.40001
1.40001
1.40001
1.40001
1.40001
1.4
1.4
1.4
1.40137
1.42511
1.40001
1.40001
1.40001
1.40001
1.40001
1.40001
1.40001
1.40001
1.40001
1.40001
1.40001
1.40001
1.40001
1.40001
1.40001
1.40001
1.40001
1.4
1.4
1.4
1.4
1.40177
1.46596
1.81554
1.40001
1.40001
1.40001
1.40001
1.40001
1.40001
1.40001
1.40001
1.40001
1.40001
1.40001
1.40001
1.40001
1.40001
1.40001
1.40001
1.4
1.4
1.4
1.40004
1.40462
1.49635
1.98746
2.76772
1.40001
1.40001
1.40001
1.40001
1.40001
1.40001
1.40001
1.40001
1.40001
1.40001
1.40001
1.40001
1.40001
1.40001
1.40001
1.4
1.4
1.4
1.40014
1.41598
1.57764
2.20185
2.86792
3.28245
1.40001
1.40001
1.40001
1.40001
1.40001
1.40001
1.40001
1.40001
1.40001
1.40001
1.40001
1.40001
1.40001
1.4
1.4
1.4
1.39999
1.4018
1.43696
1.75251
2.41657
3.1404
3.31203
3.31347
1.40001
1.40001
1.40001
1.40001
1.40001
1.40001
1.40001
1.40001
1.40001
1.40001
1.40001
1.40001
1.4
1.4
1.4
1.40005
1.40572
1.52638
1.9952
2.76957
3.13986
3.32507
3.35654
3.33665
1.40001
1.40001
1.40001
1.40001
1.40001
1.40001
1.40001
1.40001
1.40001
1.40001
1.40001
1.4
1.4
1.39998
1.40068
1.43761
1.67809
2.3722
3.01771
3.33958
3.38461
3.37479
3.34111
3.30508
1.40001
1.40001
1.40001
1.40001
1.40001
1.40001
1.40001
1.40001
1.40001
1.4
1.4
1.39999
1.4
1.41119
1.5239
2.02464
2.76062
3.32366
3.38241
3.35848
3.33058
3.31969
3.29729
3.2828
1.40001
1.40001
1.40001
1.40001
1.40001
1.4
1.4
1.4
1.4
1.4
1.39993
1.4026
1.46095
1.82236
2.51541
3.1486
3.37369
3.38674
3.36728
3.3205
3.28919
3.28875
3.28267
3.28844
1.40001
1.40001
1.4
1.4
1.4
1.4
1.4
1.4
1.39992
1.40094
1.43961
1.67114
2.32822
2.99532
3.42123
3.53954
3.51678
3.45519
3.40035
3.35584
3.31845
3.30492
3.31042
3.32536
1.40001
1.4
1.4
1.4
1.39999
1.40004
1.39995
1.40149
1.4316
1.6299
2.18913
2.89429
3.51441
3.57503
3.53743
3.49539
3.43609
3.38791
3.36033
3.34176
3.33731
3.34113
3.34923
3.37137
1.40001
1.39997
1.40003
1.40032
1.40311
1.42243
1.49618
1.70886
2.19271
2.89313
3.4189
3.71881
3.77934
3.71815
3.6067
3.44517
3.37981
3.35566
3.34533
3.35361
3.36434
3.37273
3.38418
3.40053
1.40308
1.41749
1.47159
1.59332
1.7939
2.11554
2.50251
2.98859
3.37023
3.53502
3.63725
3.62831
3.57372
3.47502
3.41656
3.39426
3.38271
3.36881
3.36661
3.37426
3.38928
3.40306
3.415
3.41946
1.67676
2.08368
2.54558
2.98574
3.43009
3.82902
4.11419
4.42869
4.43294
4.29194
4.01847
3.72466
3.45414
3.36222
3.3021
3.30925
3.33278
3.3552
3.37102
3.38449
3.40132
3.42119
3.42893
3.42871
2.66088
1.95256
1.40641
1.09604
1.03547
0.990423
0.964891
0.97629
1.03449
1.1068
1.16707
1.22138
1.27857
1.31079
1.31211
1.30341
1.30613
1.32234
1.34354
1.35214
1.35146
1.34903
1.34242
1.38725
1.63484
2.28563
3.35251
4.32945
5.20259
5.70072
5.5677
5.2021
4.8063
4.52299
4.35904
4.24797
4.15023
4.06664
3.9654
3.84239
3.71342
3.59252
3.49515
3.41467
3.34173
3.27633
3.21107
3.13081
3.03363
2.93128
2.83906
2.769
2.71092
2.65532
2.60501
2.56162
2.51755
2.45903
2.38078
2.30064
2.24267
2.20373
2.16998
2.1362
2.10143
2.0625
2.01425
1.95581
1.89781
1.85389
1.82572
1.80487
1.78362
1.75774
1.72385
1.67819
1.62451
1.57955
1.54953
1.52708
1.50726
1.48738
1.46653
1.44186
1.40671
1.36222
1.32795
1.30556
1.28692
1.27059
1.25733
1.24437
1.22695
1.19571
1.15661
1.12056
3.14715
2.72818
2.34215
1.93921
1.71754
1.60514
1.46754
1.34649
1.29942
1.26604
1.22532
1.20735
1.21435
1.24017
1.2523
1.26055
1.27174
1.29451
1.31961
1.33438
1.33289
1.336
1.39211
1.77224
2.32694
2.6717
2.94157
3.31124
3.75076
4.33849
4.60002
4.72212
4.72842
4.5983
4.46049
4.32445
4.20303
4.09552
3.99053
3.86838
3.74075
3.62409
3.53381
3.45816
3.38434
3.3139
3.24543
3.16559
3.07508
2.98378
2.89697
2.82106
2.75518
2.69689
2.64653
2.60161
2.55502
2.49687
2.42405
2.34722
2.28675
2.24432
2.20717
2.17069
2.13432
2.09499
2.04808
1.99291
1.93856
1.8942
1.86094
1.83381
1.8078
1.77958
1.74579
1.70302
1.65461
1.61202
1.58116
1.55668
1.53405
1.51142
1.48842
1.46387
1.43287
1.39316
1.35721
1.33211
1.31177
1.29419
1.27974
1.26568
1.24762
1.2179
1.18135
1.14517
3.33975
3.11967
2.81527
2.47681
2.10799
1.89337
1.73817
1.55749
1.40856
1.34894
1.30032
1.24119
1.23233
1.24285
1.26689
1.26688
1.26455
1.27661
1.30042
1.32381
1.34692
1.43768
1.87857
2.5177
2.8418
2.90472
2.90782
2.88847
2.92322
3.15041
3.64437
4.20063
4.48324
4.58356
4.54718
4.43459
4.26229
4.07151
3.92976
3.81252
3.69891
3.58587
3.48876
3.40058
3.31159
3.22716
3.16241
3.09898
3.02684
2.94949
2.86727
2.78969
2.72096
2.66003
2.60551
2.55404
2.50713
2.45388
2.38859
2.31758
2.25375
2.21157
2.17846
2.14355
2.1069
2.06779
2.02195
1.9668
1.91483
1.87262
1.83572
1.80412
1.77307
1.73863
1.70172
1.66041
1.61957
1.58778
1.56253
1.53927
1.51544
1.48958
1.45999
1.42799
1.39842
1.37153
1.34729
1.32583
1.30458
1.28298
1.26269
1.24631
1.22948
1.20454
1.17503
1.14379
3.36857
3.29747
3.10886
2.86417
2.5205
2.21974
2.06038
1.8885
1.66785
1.55537
1.51015
1.42539
1.32899
1.31042
1.30943
1.29848
1.27322
1.26302
1.27092
1.2912
1.43947
1.8915
2.63013
2.86899
2.87686
2.86221
2.82228
2.72871
2.6756
2.66748
2.74843
3.04005
3.53584
4.03701
4.28135
4.23353
4.16437
4.09266
3.96514
3.82674
3.69046
3.57075
3.47493
3.37825
3.28903
3.20235
3.13201
3.06865
3.00422
2.93872
2.85917
2.77754
2.70508
2.64278
2.59046
2.5386
2.48985
2.43954
2.37707
2.31216
2.2479
2.19957
2.16825
2.13749
2.10208
2.0644
2.02331
1.97095
1.91313
1.86925
1.8311
1.79931
1.76784
1.73033
1.6856
1.64421
1.60798
1.5815
1.55938
1.53727
1.5139
1.48858
1.45816
1.42001
1.38274
1.36099
1.34576
1.32883
1.30915
1.28819
1.26502
1.24826
1.23161
1.20569
1.17997
1.15966
3.34959
3.34137
3.26076
3.09753
2.86361
2.55913
2.32145
2.16139
1.99431
1.79073
1.63797
1.55289
1.48622
1.41582
1.36534
1.31686
1.27816
1.26862
1.28408
1.46852
1.99675
2.62762
2.90979
2.88231
2.80335
2.72151
2.66036
2.61427
2.58294
2.54551
2.49161
2.48922
2.59291
2.90894
3.44539
3.79957
4.00652
4.00364
3.97485
3.87859
3.71987
3.56278
3.44469
3.35631
3.28131
3.19723
3.10672
3.01206
2.93173
2.87167
2.81852
2.76098
2.69706
2.64136
2.59079
2.52989
2.46436
2.42133
2.38589
2.33493
2.27222
2.20938
2.16222
2.12159
2.07903
2.03776
1.99632
1.94537
1.8803
1.84754
1.83772
1.81869
1.79194
1.75314
1.68925
1.63373
1.61535
1.59987
1.58189
1.5608
1.53752
1.50889
1.47121
1.42862
1.38518
1.36312
1.35291
1.33856
1.32208
1.30683
1.28146
1.25777
1.24544
1.23735
1.24357
1.27688
3.31063
3.31638
3.30571
3.22326
3.06002
2.84971
2.6229
2.37233
2.21122
2.08325
1.92813
1.72097
1.62956
1.58816
1.53481
1.46011
1.3901
1.40871
1.61225
2.1777
2.74231
2.95692
2.9255
2.82814
2.71217
2.63677
2.58156
2.54107
2.49812
2.44427
2.36802
2.33454
2.31284
2.32027
2.44946
2.77847
3.22037
3.48973
3.70388
3.68459
3.63806
3.57871
3.4769
3.37963
3.29511
3.20078
3.09848
2.99779
2.9087
2.84099
2.78713
2.74131
2.69335
2.63522
2.57223
2.50742
2.45298
2.40537
2.35038
2.29596
2.24161
2.19307
2.14895
2.10795
2.06776
2.026
1.98416
1.93387
1.88074
1.83768
1.80246
1.78206
1.76001
1.72922
1.68566
1.63818
1.59689
1.57004
1.55274
1.5371
1.52176
1.50249
1.47269
1.43238
1.39178
1.37459
1.36992
1.36253
1.36175
1.36741
1.36553
1.36545
1.38423
1.41501
1.45907
1.54812
3.28987
3.29816
3.29285
3.27821
3.19452
3.02271
2.83979
2.64418
2.40613
2.25385
2.13905
1.98788
1.83727
1.7193
1.66085
1.59156
1.62071
1.88462
2.48661
2.99206
3.11073
3.04541
2.91854
2.79178
2.69532
2.63107
2.57133
2.51595
2.45443
2.38723
2.31217
2.27175
2.23991
2.19802
2.14098
2.14547
2.25409
2.55222
2.98117
3.34266
3.4551
3.48883
3.45584
3.37501
3.26997
3.16621
3.07738
3.00367
2.92584
2.85404
2.79274
2.73035
2.66534
2.59741
2.53437
2.47952
2.43089
2.38155
2.32721
2.28549
2.24618
2.19504
2.13312
2.07849
2.05044
2.02984
1.99551
1.95194
1.90532
1.84627
1.79191
1.76259
1.74233
1.71771
1.68586
1.64332
1.60214
1.57112
1.54949
1.53556
1.52257
1.50524
1.4845
1.45816
1.4292
1.42894
1.44306
1.47959
1.54715
1.61274
1.64865
1.69821
1.73607
1.75106
1.78361
1.79948
3.29436
3.29748
3.29523
3.28527
3.2551
3.15965
3.00368
2.84545
2.62304
2.451
2.31373
2.18183
2.01572
1.90282
1.82164
1.90064
2.31098
2.97035
3.38937
3.37492
3.26888
3.12086
2.97559
2.85223
2.75645
2.675
2.59603
2.52043
2.44668
2.37293
2.29685
2.25035
2.20699
2.1528
2.08991
2.04435
1.98801
1.99406
2.09569
2.43625
2.82661
3.17794
3.25912
3.22657
3.19598
3.12153
3.03541
2.98545
2.94481
2.88523
2.80702
2.72788
2.65639
2.59411
2.5293
2.46105
2.39479
2.34252
2.31304
2.28418
2.23716
2.17858
2.12441
2.07821
2.02697
1.9783
1.94463
1.91248
1.87721
1.84077
1.80136
1.75571
1.71749
1.69427
1.67352
1.64613
1.61941
1.59377
1.56847
1.55669
1.55202
1.55278
1.57365
1.60439
1.64974
1.71086
1.77623
1.84598
1.9067
1.92504
1.94382
1.9614
1.96159
1.95692
1.95273
1.93029
3.30362
3.2999
3.29798
3.29709
3.28543
3.2377
3.13901
3.00763
2.84369
2.63374
2.4887
2.35226
2.1913
2.11638
2.27703
2.85456
3.56087
3.77991
3.71294
3.54641
3.37168
3.21878
3.08111
2.95975
2.85476
2.7574
2.66323
2.57039
2.48137
2.3973
2.31674
2.25561
2.19876
2.13978
2.06991
2.01332
1.96185
1.91532
1.87223
1.89273
2.00605
2.29604
2.64176
2.94389
3.12614
3.1137
3.0685
2.98873
2.9011
2.82574
2.7483
2.68531
2.64394
2.60003
2.53626
2.46575
2.40308
2.33548
2.27161
2.24075
2.21597
2.18029
2.13455
2.08609
2.03011
1.96357
1.92643
1.90763
1.88404
1.85074
1.8049
1.75346
1.7176
1.70142
1.68463
1.66574
1.65041
1.64805
1.66382
1.70126
1.76274
1.85611
1.9311
1.99089
2.05
2.07681
2.09906
2.09866
2.06449
2.02941
2.01806
2.00782
1.99579
1.98042
1.9691
1.93717
3.30142
3.2913
3.28585
3.28799
3.29051
3.27464
3.22302
3.12375
2.99193
2.81554
2.66704
2.48234
2.507
2.82626
3.53916
4.16231
4.24512
4.13061
3.9223
3.71128
3.52147
3.35451
3.20625
3.07565
2.9602
2.85313
2.74884
2.64347
2.53868
2.43121
2.33073
2.25678
2.19592
2.13593
2.07624
2.02212
1.96205
1.90353
1.85429
1.80853
1.76865
1.78346
1.89499
2.1551
2.51341
2.79009
2.95999
2.94763
2.89921
2.81786
2.73163
2.65311
2.58435
2.5482
2.52431
2.48379
2.41748
2.33932
2.26235
2.20999
2.1742
2.13511
2.09702
2.06344
2.02482
1.9773
1.93421
1.89595
1.86136
1.83744
1.81241
1.77085
1.74508
1.73693
1.7483
1.78964
1.86657
1.96344
2.06033
2.13975
2.19465
2.23325
2.25266
2.28396
2.29013
2.28299
2.25966
2.21343
2.14958
2.11498
2.09731
2.07686
2.04521
2.01275
1.99103
1.9391
3.36818
3.35472
3.31257
3.30063
3.30502
3.30517
3.28128
3.21909
3.09803
2.9658
2.8265
2.94702
3.55196
4.34178
4.69303
4.66084
4.48303
4.27089
4.06605
3.86778
3.67588
3.49467
3.33081
3.18775
3.06228
2.94707
2.83623
2.72613
2.61493
2.49778
2.38759
2.29566
2.21516
2.13642
2.07111
2.02173
1.96637
1.91274
1.8555
1.79733
1.75267
1.71005
1.68379
1.69998
1.81076
2.05122
2.39831
2.614
2.73811
2.75593
2.73387
2.68092
2.59859
2.53871
2.49649
2.44955
2.39236
2.32864
2.25519
2.19548
2.15506
2.11911
2.09091
2.06382
2.02692
1.97659
1.93159
1.90342
1.87802
1.85966
1.86344
1.89289
1.95129
2.03689
2.12864
2.24197
2.33393
2.41633
2.43973
2.41502
2.36747
2.34413
2.33559
2.3321
2.32083
2.29594
2.25921
2.20723
2.13978
2.10799
2.09276
2.07041
2.05203
2.03803
2.01969
1.96261
3.27662
3.26573
3.25525
3.28719
3.32566
3.33591
3.31629
3.26869
3.17416
3.17613
3.52341
4.39219
5.16206
5.35597
5.23887
4.94009
4.65536
4.41146
4.19785
3.99913
3.80688
3.62241
3.45237
3.30034
3.16354
3.03577
2.91217
2.79068
2.66916
2.54674
2.4351
2.33769
2.25326
2.17975
2.11298
2.04093
1.96491
1.89732
1.83959
1.80519
1.75537
1.69711
1.65692
1.62772
1.61059
1.63066
1.72746
1.93401
2.1692
2.40178
2.52526
2.58807
2.57572
2.55264
2.5209
2.46973
2.40258
2.33098
2.25152
2.18395
2.13723
2.10494
2.08615
2.06737
2.04103
1.99631
1.94829
1.95356
1.99558
2.09019
2.22944
2.37567
2.48785
2.5527
2.59853
2.65017
2.65494
2.63478
2.59163
2.53806
2.48941
2.44528
2.40651
2.36745
2.33049
2.28647
2.23967
2.18554
2.1291
2.10355
2.09124
2.06833
2.04396
2.02472
2.00487
1.95134
2.60732
3.10342
3.32263
3.35497
3.3427
3.31145
3.28822
3.29223
3.44183
4.18601
5.34752
5.78235
5.74687
5.60844
5.37602
5.11176
4.83949
4.58127
4.34362
4.12657
3.92432
3.73151
3.54986
3.38297
3.23001
3.08787
2.95598
2.83516
2.71881
2.59985
2.48572
2.37682
2.26861
2.17971
2.11698
2.05987
1.99587
1.92881
1.86209
1.79851
1.72795
1.67211
1.63289
1.60683
1.58352
1.55493
1.50895
1.50712
1.56346
1.75933
2.02494
2.29673
2.39149
2.44436
2.45857
2.44631
2.40758
2.34624
2.25784
2.18876
2.14727
2.12023
2.10762
2.10682
2.11956
2.15804
2.23319
2.35673
2.50059
2.65539
2.74712
2.75502
2.76702
2.75653
2.74157
2.72047
2.68687
2.63048
2.56849
2.51641
2.48042
2.45406
2.43175
2.40421
2.36823
2.32385
2.26641
2.19603
2.13834
2.11495
2.09794
2.07108
2.03639
2.01124
1.9903
1.9384
1.71906
2.401
3.08161
3.29346
3.27264
3.27851
3.38905
3.83724
4.86527
6.03166
6.52232
6.42552
6.06357
5.70662
5.4631
5.24422
5.0018
4.73865
4.47675
4.23315
4.01183
3.80982
3.62402
3.45271
3.294
3.14561
3.00457
2.86747
2.73954
2.63643
2.54289
2.42982
2.3136
2.22454
2.1484
2.07231
2.00328
1.94327
1.87791
1.79789
1.72598
1.68282
1.64567
1.60726
1.56366
1.52043
1.47556
1.44948
1.4336
1.44118
1.51025
1.68672
1.94084
2.13685
2.27112
2.33377
2.31761
2.26027
2.24419
2.22971
2.22339
2.25187
2.33321
2.46982
2.59628
2.70664
2.82015
2.93869
3.01228
3.02192
2.99958
2.94878
2.91824
2.8878
2.84212
2.76855
2.67069
2.59102
2.53129
2.49099
2.46622
2.44508
2.41819
2.37962
2.33424
2.2908
2.24975
2.21069
2.16809
2.13141
2.09959
2.06886
2.03462
2.00462
1.97887
1.93088
1.4252
1.62259
2.23288
2.9109
3.17442
3.65544
4.49355
5.52641
6.33043
6.61966
6.57899
6.46294
6.23774
5.91864
5.62323
5.35251
5.08916
4.83039
4.57586
4.3257
4.08471
3.86086
3.66033
3.48322
3.32466
3.17922
3.04309
2.91295
2.78729
2.65583
2.51667
2.4292
2.37891
2.30894
2.22457
2.14039
2.05077
1.94108
1.86766
1.83013
1.79214
1.74633
1.69036
1.63013
1.56242
1.50405
1.46729
1.44734
1.42517
1.39901
1.3775
1.39069
1.4616
1.59981
1.78844
1.99438
2.16914
2.23151
2.33746
2.4699
2.60039
2.78819
2.99677
3.09353
3.09582
3.10511
3.1132
3.11704
3.10177
3.06682
3.01317
2.94246
2.87415
2.83626
2.79284
2.72989
2.66786
2.60322
2.54748
2.50868
2.48176
2.45371
2.41489
2.36455
2.30922
2.2618
2.22476
2.19063
2.16418
2.13815
2.10827
2.07823
2.04586
2.01126
1.98555
1.94686
1.40056
1.41334
1.56646
2.15505
3.31733
4.64219
5.79045
6.6477
7.09774
6.90543
6.5708
6.42536
6.2798
6.04552
5.72951
5.40524
5.11064
4.84756
4.60084
4.3558
4.11233
3.88116
3.67319
3.49204
3.33343
3.18975
3.05401
2.91984
2.78377
2.65103
2.54188
2.44958
2.34607
2.25099
2.1609
2.07193
1.99064
1.93433
1.89052
1.82891
1.76021
1.69791
1.63905
1.57967
1.52444
1.47853
1.44187
1.418
1.39294
1.36895
1.34395
1.33299
1.31359
1.32141
1.37897
1.49373
1.74101
2.23122
2.63709
2.94362
3.17941
3.38586
3.48049
3.46412
3.38318
3.32351
3.29361
3.22525
3.14227
3.06257
2.98023
2.89967
2.81827
2.7703
2.7322
2.68969
2.65166
2.60677
2.56503
2.5302
2.49564
2.45808
2.41408
2.35995
2.29962
2.24596
2.20566
2.17952
2.16004
2.13656
2.1124
2.08404
2.05249
2.01876
1.98438
1.93
1.40056
1.41334
1.56646
2.15506
3.31732
4.64219
5.79045
6.64769
7.09774
6.90544
6.5708
6.42536
6.2798
6.04551
5.7295
5.40523
5.11063
4.84756
4.60084
4.3558
4.11234
3.88117
3.6732
3.49204
3.33342
3.18974
3.054
2.91983
2.78377
2.65106
2.5419
2.44958
2.34607
2.25099
2.1609
2.07195
1.99063
1.93428
1.89049
1.8289
1.76019
1.69792
1.63909
1.57951
1.52439
1.47904
1.4423
1.41818
1.39298
1.36897
1.34392
1.33302
1.31483
1.31958
1.36843
1.54941
1.89004
2.27295
2.62768
2.92599
3.20672
3.41938
3.45786
3.4323
3.39505
3.33163
3.23536
3.21295
3.19252
3.11544
3.01277
2.92898
2.83786
2.76814
2.72521
2.68971
2.65503
2.60988
2.56396
2.526
2.49066
2.45372
2.41058
2.35869
2.3021
2.25063
2.20654
2.17457
2.15918
2.14713
2.12508
2.08943
2.05379
2.01907
1.98468
1.92997
1.4252
1.62259
2.23288
2.9109
3.17441
3.65543
4.49356
5.52641
6.33043
6.61966
6.57899
6.46294
6.23773
5.91863
5.62322
5.35251
5.08916
4.83039
4.57586
4.32569
4.0847
3.86086
3.66033
3.48323
3.32467
3.17922
3.0431
2.91296
2.7873
2.65585
2.51667
2.42916
2.37888
2.30894
2.22458
2.1404
2.05077
1.94107
1.86767
1.83013
1.7921
1.74634
1.69041
1.62978
1.56186
1.50498
1.46899
1.44825
1.4251
1.39872
1.37783
1.3904
1.46272
1.59999
1.79081
1.99216
2.19056
2.25075
2.32817
2.44726
2.62576
2.85037
2.98881
3.06696
3.10676
3.08561
3.05732
3.06255
3.0957
3.09039
3.06039
2.99455
2.89436
2.81159
2.76058
2.7184
2.67845
2.63177
2.57277
2.51716
2.47575
2.44008
2.40057
2.35702
2.31302
2.26865
2.22735
2.19817
2.16955
2.1338
2.1046
2.07899
2.05381
2.01919
1.98366
1.93313
1.71906
2.401
3.08161
3.29346
3.27264
3.27851
3.38906
3.83724
4.86527
6.03166
6.52232
6.42552
6.06357
5.70662
5.4631
5.24422
5.0018
4.73865
4.47675
4.23316
4.01183
3.80982
3.62402
3.45271
3.29399
3.1456
3.00456
2.86747
2.73954
2.63644
2.5429
2.42983
2.31361
2.22454
2.1484
2.07229
2.00326
1.94328
1.87791
1.79788
1.72594
1.68281
1.64569
1.60711
1.56361
1.52066
1.47576
1.44935
1.43363
1.44112
1.51251
1.6864
1.93561
2.14247
2.27926
2.3221
2.30487
2.27125
2.24758
2.22184
2.22821
2.27381
2.34814
2.45448
2.57989
2.71576
2.83543
2.91901
2.99492
3.04938
3.03715
2.97804
2.89409
2.85012
2.8121
2.76278
2.69238
2.61904
2.54492
2.48534
2.4585
2.43554
2.40803
2.37339
2.33894
2.30075
2.25769
2.20665
2.15964
2.12681
2.09902
2.06823
2.03936
2.01078
1.97866
1.92835
2.60732
3.10342
3.32263
3.35497
3.3427
3.31145
3.28822
3.29223
3.44183
4.18601
5.34751
5.78235
5.74687
5.60844
5.37602
5.11176
4.83949
4.58127
4.34362
4.12657
3.92432
3.73151
3.54986
3.38297
3.23001
3.08787
2.95598
2.83516
2.71881
2.59984
2.48571
2.37682
2.26861
2.17971
2.11696
2.05985
1.99587
1.92882
1.86209
1.7985
1.72792
1.67209
1.63283
1.60683
1.58357
1.55473
1.50872
1.50687
1.56296
1.76163
2.02583
2.2948
2.39192
2.44977
2.45773
2.44272
2.40278
2.34624
2.26387
2.18419
2.14663
2.12816
2.11504
2.10477
2.11578
2.15582
2.2466
2.36307
2.49099
2.64759
2.75708
2.74804
2.74352
2.73246
2.73255
2.72643
2.70526
2.65486
2.58079
2.50073
2.46371
2.44226
2.42365
2.40595
2.37999
2.3386
2.27242
2.18529
2.13323
2.11739
2.09887
2.07185
2.04426
2.0184
1.99334
1.93994
3.27662
3.26573
3.25525
3.28719
3.32566
3.33591
3.31629
3.26869
3.17416
3.17613
3.52341
4.39219
5.16206
5.35597
5.23887
4.94009
4.65536
4.41146
4.19785
3.99913
3.80688
3.62241
3.45237
3.30034
3.16354
3.03577
2.91217
2.79067
2.66916
2.54674
2.4351
2.33769
2.25325
2.17974
2.11298
2.04094
1.96491
1.89732
1.83959
1.80522
1.75542
1.69711
1.65685
1.62774
1.61065
1.63038
1.7281
1.93375
2.16848
2.4055
2.52269
2.58718
2.57618
2.55358
2.51902
2.4676
2.40138
2.33151
2.25265
2.17557
2.13844
2.1124
2.08928
2.06574
2.03616
1.99238
1.95653
1.95917
1.99125
2.08073
2.22075
2.36619
2.46981
2.54316
2.60809
2.66503
2.67231
2.6503
2.59705
2.51702
2.47271
2.44585
2.41253
2.37542
2.34114
2.29577
2.2421
2.17756
2.12459
2.10756
2.09345
2.06826
2.04759
2.02747
2.00558
1.95126
3.36818
3.35472
3.31257
3.30063
3.30502
3.30517
3.28128
3.21909
3.09803
2.9658
2.8265
2.94702
3.55196
4.34178
4.69303
4.66084
4.48303
4.27089
4.06605
3.86778
3.67588
3.49467
3.33081
3.18775
3.06228
2.94707
2.83623
2.72613
2.61493
2.49778
2.38759
2.29566
2.21516
2.13642
2.07112
2.02173
1.96637
1.91273
1.85549
1.79732
1.75267
1.71003
1.68377
1.69998
1.81074
2.05107
2.399
2.61255
2.73936
2.75616
2.73301
2.6785
2.59831
2.53939
2.49526
2.44859
2.39421
2.33154
2.25416
2.19205
2.15504
2.1222
2.09164
2.06138
2.02129
1.97404
1.93685
1.90784
1.87894
1.85865
1.86146
1.89225
1.95011
2.03585
2.13675
2.25361
2.33993
2.40989
2.42829
2.39633
2.35786
2.3446
2.34634
2.34065
2.32342
2.29718
2.25669
2.19611
2.13444
2.1126
2.09681
2.07156
2.05335
2.03998
2.01986
1.96179
3.30142
3.2913
3.28585
3.28799
3.29051
3.27464
3.22302
3.12375
2.99193
2.81554
2.66704
2.48234
2.507
2.82626
3.53916
4.16231
4.24513
4.13061
3.9223
3.71128
3.52147
3.35451
3.20625
3.07565
2.9602
2.85313
2.74885
2.64347
2.53868
2.43121
2.33073
2.25678
2.19592
2.13593
2.07624
2.02212
1.96205
1.90353
1.85428
1.80852
1.76865
1.78346
1.89493
2.15537
2.51259
2.79112
2.96016
2.94735
2.89911
2.81817
2.73001
2.65045
2.58395
2.54936
2.52552
2.4848
2.41826
2.33863
2.26123
2.21083
2.17388
2.13505
2.0968
2.05947
2.01963
1.97839
1.93926
1.89879
1.86217
1.83675
1.81037
1.76969
1.74783
1.73824
1.74903
1.78705
1.85991
1.95099
2.05321
2.13563
2.19159
2.23901
2.26867
2.30091
2.29742
2.28161
2.25111
2.20292
2.15016