/*--------------------------------*- C++ -*----------------------------------*\
  =========                 |
  \\      /  F ield         | OpenFOAM: The Open Source CFD Toolbox
   \\    /   O peration     | Website:  https://openfoam.org
    \\  /    A nd           | Version:  7
     \\/     M anipulation  |
\*---------------------------------------------------------------------------*/
FoamFile
{
    version     2.0;
    format      ascii;
    class       volScalarField;
    location    "1";
    object      T;
}
// * * * * * * * * * * * * * * * * * * * * * * * * * * * * * * * * * * * * * //

dimensions      [0 0 0 1 0 0 0];

internalField   nonuniform List<scalar> 
4608
(
1
1
1
1
1
1
1
1
1
1
1
1
1
1
1
1
1
1
1
1
1
1
1
1
1
1
1
1
1
1
1
1
1
1
1
1
1
1
1
1
1
1
1
1
1
1
1
1
1
1
1
1
1
1
1
1
1
1
1
1
1
1
1
1
1
1
1
1
1
1
1
1
1
1
1
1
1
1
1
1
1
1
1
1
1
1
1
1
1
1
1
1
1
1
1
1
1
1
1
1
1
1
1
1
1
1
1
1
1
1
1
1
1
1
1
1
1
1
1
1
1
1
1
1
1
1
1
1
1
1
1
1
1
1
1
1
1
1
1
1
1
1
1
1
1
1
1
1
1
1
1
1
1
1
1
1
1
1
1
1
1
1
1
1
1
1
1
1
1
1
1
1
1
1
1
1
1
1
1
1
1
1
1
1
1
1
1
1
1
1
1
1
1
1
1
1
1
1
1
1
1
1
1
1
1
1
1
1
1
1
1
1
1
1
1
1
1
1
1
1
1
1
1
1
1
1
1
1
1
1
1
1
1
1
1
1
1
1
1
1
1
1
1
1
1
1
1
1
1
1
1
1
1
1
1
1
1
1
1
1
1
1
1
1
1
1
1
1
1
1
1
1
1
1
1
1
1
1
1
1
1
1
1
1
1
1
1
1
1
1
1
1
1
1
1
1
1
1
1
1
1
1
1
1
1
1
1
1
1
1
1
1
1
1
1
1
1
1
1
1
1
1
1
1
1
1
1
1
1
1
1
1
1
1
1
1
1
1
1
1
1
1
1
1
1
1
1
1
1
1
1
1
1
1
1
1
1
1
1
1
1
1
1
1
1
1
1
1
1
1
1
1
1
1
1
1
1
1
1
1
1
1
1
1
1
1
1
1
1
1
1
1
1
1
1
1
1
1
1
1
1
1
1
1
1
1
1
1
1
1
1
1
1
1
1
1
1
1
1
1
1
1
1
1
1
1
1
1
1
1
1
1
1
1
1
1
1
1
1
1
1
1
1
1
1
1
1
1
1
1
1
1
1
1
1
1
1
1
1
1
1
1
1
1
1
1
1
1
1
1
1
1
1
1
1
1
1
1
1
1
1
1
1
1
1
1
1
1
1
1
1
1
1
1
1
1
1
1
1
1
1
1
1
1
1
1
1
1
1
1
1
1
1
1
1
1
1
1
1
1
1
1
1
1
1
1
1
1
1
1
1
1
1
1
1
1
1
1
1
1
1
1
1
1
1
1
1
1
1
1
1
1
1
1
1
1
1
1
1
1
1
1
1
1
1
1
1
1
1
1
1
1
1
1
1
1
1
1
1
1
1
1
1
1
1
1
1
1
1
1
1
1
1
1
1
1
1
1
1
1
1
1
1
1
1
1
1
1
1
1
1
1
1
1
1
1
1
1
1
1
1
1
1
1
1
1
1
1
1
1
1
1
1
1
1
1
1
1
1
1
1
1
1
1
1
1
1
1
1
1
1
1
1
1
1
1
1
1
1
1
1
1
1
1
1
1
1
1
1
1
1
1
1
1
1
1
1
1
1
1
1
1
1
1
1
1
1
1
1
1
1
1
1
1
1
1
1
1
1
1
1
1
1
1
1
1
1
1
1
1
1
1
1
1
1
1
1
1
1
1
1
1
1
1
1
1
1
1
1
1
1
1
1
1
1
1
1
1
1
1
1
1
1
1
1
1
1
1
1
1
1
1
1
1
1
1
1
1
1
1
1
1
1
1
1
1
1
1
1.07826
1.18118
1.29005
1.39007
1.48761
1.5723
1.63389
1.68372
1.69959
1.68201
1.6363
1.58635
1.53877
1.52334
1.51416
1.51592
1.52028
1.5245
1.52772
1.53016
1.53288
1.53677
1.5392
1.54006
1.00102
1.00633
1.0275
1.07442
1.14282
1.23353
1.32023
1.40939
1.4808
1.51969
1.54437
1.56694
1.56214
1.55006
1.54169
1.53794
1.53527
1.53214
1.53155
1.53275
1.53514
1.53775
1.54024
1.54186
1
0.999988
1.00001
1.00012
1.00118
1.0085
1.03703
1.11607
1.27034
1.4541
1.56508
1.62187
1.6222
1.61138
1.59155
1.56206
1.55041
1.54476
1.53921
1.53989
1.54163
1.54361
1.54593
1.54914
1
1
0.999999
0.999999
0.999995
1.00001
0.999977
1.00059
1.0134
1.10649
1.31103
1.48748
1.61846
1.61697
1.60328
1.59438
1.58451
1.57482
1.56333
1.556
1.55544
1.55628
1.55786
1.56108
1
1
1
1
1
1
0.999998
0.999997
0.999964
1.00038
1.01748
1.12128
1.35673
1.52366
1.6173
1.6283
1.62214
1.60744
1.59256
1.58093
1.57398
1.57008
1.57033
1.57227
1
1
1
1
1
1
1
1
0.999997
0.999997
0.999962
1.00098
1.02671
1.184
1.40511
1.55622
1.59848
1.59945
1.59601
1.58782
1.58268
1.5817
1.57795
1.5783
1
1
1
1
1
1
1
1
1
1
0.999997
0.999997
0.999982
1.0044
1.0536
1.24923
1.46
1.59021
1.60197
1.5981
1.59336
1.59101
1.58632
1.58202
1
1
1
1
1
1
1
1
1
1
1
0.999999
0.999999
0.999987
1.00022
1.01479
1.11586
1.35086
1.51738
1.58875
1.59946
1.59818
1.59307
1.58601
1
1
1
1
1
1
1
1
1
1
1
1
1
0.999999
0.999998
1
1.00209
1.05124
1.22783
1.44597
1.53426
1.58047
1.58931
1.58559
1
1
1
1
1
1
1
1
1
1
1
1
1
1
1
1
0.999994
1.00058
1.01417
1.13844
1.34612
1.52688
1.56972
1.57619
1
1
1
1
1
1
1
1
1
1
1
1
1
1
1
1
0.999999
0.999997
1.00003
1.00567
1.0696
1.27901
1.46102
1.55116
1
1
1
1
1
1
1
1
1
1
1
1
1
1
1
1
1
0.999999
0.999999
1.00001
1.00155
1.03611
1.21591
1.42334
1
1
1
1
1
1
1
1
1
1
1
1
1
1
1
1
1
1
1
1
0.999999
1.00056
1.02411
1.14964
1
1
1
1
1
1
1
1
1
1
1
1
1
1
1
1
1
1
1
1
1
0.999999
1.00041
1.00876
1
1
1
1
1
1
1
1
1
1
1
1
1
1
1
1
1
1
1
1
1
1
1
0.99999
1
1
1
1
1
1
1
1
1
1
1
1
1
1
1
1
1
1
1
1
1
1
1
0.999997
1
1
1
1
1
1
1
1
1
1
1
1
1
1
1
1
1
1
1
1
1
1
1
0.999997
1
1
1
1
1
1
1
1
1
1
1
1
1
1
1
1
1
1
1
1
1
1
1
0.99999
1
1
1
1
1
1
1
1
1
1
1
1
1
1
1
1
1
1
1
1
1
0.999999
1.00041
1.00876
1
1
1
1
1
1
1
1
1
1
1
1
1
1
1
1
1
1
1
1
0.999999
1.00056
1.02411
1.14964
1
1
1
1
1
1
1
1
1
1
1
1
1
1
1
1
1
0.999999
0.999999
1.00001
1.00155
1.03611
1.21591
1.42334
1
1
1
1
1
1
1
1
1
1
1
1
1
1
1
1
0.999999
0.999997
1.00003
1.00567
1.0696
1.27901
1.46102
1.55116
1
1
1
1
1
1
1
1
1
1
1
1
1
1
1
1
0.999994
1.00058
1.01417
1.13844
1.34612
1.52688
1.56972
1.57619
1
1
1
1
1
1
1
1
1
1
1
1
1
0.999999
0.999998
1
1.00209
1.05124
1.22783
1.44597
1.53426
1.58047
1.58931
1.58559
1
1
1
1
1
1
1
1
1
1
1
0.999999
0.999999
0.999987
1.00022
1.01479
1.11586
1.35086
1.51738
1.58875
1.59946
1.59818
1.59307
1.58601
1
1
1
1
1
1
1
1
1
1
0.999997
0.999997
0.999982
1.0044
1.0536
1.24923
1.46
1.59021
1.60197
1.5981
1.59336
1.59101
1.58632
1.58202
1
1
1
1
1
1
1
1
0.999997
0.999997
0.999962
1.00098
1.02671
1.184
1.40511
1.55622
1.59848
1.59945
1.59601
1.58782
1.58268
1.5817
1.57795
1.5783
1
1
1
1
1
1
0.999998
0.999997
0.999964
1.00038
1.01748
1.12128
1.35673
1.52366
1.6173
1.6283
1.62214
1.60744
1.59256
1.58093
1.57398
1.57008
1.57033
1.57227
1
1
0.999999
0.999999
0.999995
1.00001
0.999977
1.00059
1.0134
1.10649
1.31103
1.48748
1.61846
1.61697
1.60328
1.59438
1.58451
1.57482
1.56333
1.556
1.55544
1.55628
1.55786
1.56108
1
0.999988
1.00001
1.00012
1.00118
1.0085
1.03703
1.11607
1.27034
1.4541
1.56508
1.62187
1.6222
1.61138
1.59155
1.56206
1.55041
1.54476
1.53921
1.53989
1.54163
1.54361
1.54593
1.54914
1.00102
1.00633
1.0275
1.07442
1.14282
1.23353
1.32023
1.40939
1.4808
1.51969
1.54437
1.56694
1.56214
1.55006
1.54169
1.53794
1.53527
1.53214
1.53155
1.53275
1.53514
1.53775
1.54024
1.54186
1.07826
1.18118
1.29005
1.39007
1.48761
1.5723
1.63389
1.68372
1.69959
1.68201
1.6363
1.58635
1.53877
1.52334
1.51416
1.51592
1.52028
1.5245
1.52772
1.53016
1.53288
1.53677
1.5392
1.54006
1.3971
1.2383
1.09939
0.990354
0.999047
1.01269
1.00766
1.0064
1.02513
1.05309
1.07351
1.09027
1.1046
1.10708
1.10644
1.10392
1.10631
1.11291
1.11408
1.11437
1.11402
1.11202
1.10979
1.12858
1.23185
1.43956
1.69603
1.88751
2.03263
2.11789
2.10177
2.04849
1.9845
1.93176
1.89843
1.87601
1.85752
1.84276
1.82484
1.80239
1.77772
1.75329
1.73223
1.71389
1.69704
1.682
1.66737
1.65002
1.62953
1.60779
1.58711
1.57019
1.55555
1.54141
1.52863
1.51768
1.5067
1.4923
1.4732
1.45373
1.43986
1.43066
1.42249
1.41385
1.40445
1.39358
1.38003
1.36366
1.34732
1.33495
1.32734
1.32208
1.31685
1.31033
1.30126
1.28809
1.27148
1.25677
1.24655
1.23879
1.23191
1.22503
1.2178
1.20932
1.19743
1.1825
1.17106
1.16369
1.15755
1.15195
1.14699
1.14166
1.13428
1.1215
1.10627
1.09173
1.49445
1.41411
1.33119
1.2253
1.16952
1.14936
1.111
1.06616
1.06146
1.05891
1.05479
1.05293
1.05461
1.0609
1.06514
1.06873
1.07466
1.08403
1.0895
1.09365
1.09325
1.09539
1.11898
1.27332
1.4488
1.53078
1.59366
1.68074
1.7687
1.87582
1.92358
1.95179
1.96047
1.9387
1.9146
1.89032
1.8686
1.84947
1.83068
1.80839
1.78409
1.76079
1.74102
1.72321
1.70594
1.68986
1.67464
1.65739
1.6385
1.61969
1.60059
1.58238
1.56588
1.55119
1.53859
1.52747
1.51601
1.50179
1.48419
1.46583
1.45148
1.44154
1.43264
1.42347
1.41382
1.40304
1.39009
1.37477
1.35945
1.34695
1.33787
1.3309
1.32445
1.31732
1.3083
1.29602
1.28112
1.26729
1.25698
1.24871
1.24103
1.23335
1.22552
1.21717
1.20674
1.19351
1.18162
1.17343
1.16683
1.16093
1.1556
1.14988
1.1423
1.13015
1.11591
1.10168
1.53582
1.49256
1.43146
1.35747
1.27232
1.22048
1.17678
1.12312
1.08254
1.06729
1.05443
1.03796
1.03517
1.03827
1.04623
1.0471
1.04762
1.05351
1.06152
1.06828
1.07658
1.11342
1.28269
1.47894
1.55665
1.57471
1.5752
1.57235
1.58251
1.64194
1.75763
1.87156
1.92485
1.94243
1.93499
1.91459
1.88346
1.84852
1.82153
1.79951
1.77767
1.75528
1.73444
1.71418
1.69367
1.67424
1.65915
1.64483
1.62943
1.61349
1.5956
1.57723
1.55998
1.54429
1.53021
1.51714
1.50548
1.49264
1.47694
1.45954
1.44383
1.4334
1.42521
1.41644
1.40681
1.39617
1.38349
1.36809
1.35328
1.34132
1.33124
1.32287
1.31473
1.30552
1.29524
1.28321
1.27058
1.26004
1.25135
1.24336
1.23528
1.22651
1.21641
1.2054
1.19523
1.18614
1.17813
1.17117
1.16428
1.15704
1.14967
1.14304
1.13577
1.12524
1.11342
1.10135
1.55726
1.53825
1.49703
1.44484
1.37066
1.30219
1.26198
1.21668
1.1574
1.12534
1.11085
1.08597
1.05755
1.05242
1.05155
1.04793
1.04093
1.03961
1.04225
1.0493
1.10842
1.28239
1.50936
1.56637
1.56413
1.56472
1.55898
1.54014
1.52926
1.53112
1.55483
1.63512
1.752
1.85666
1.89873
1.88796
1.87255
1.85706
1.83256
1.80664
1.78071
1.75649
1.73618
1.71509
1.69476
1.67466
1.65775
1.64274
1.6284
1.6142
1.59683
1.57804
1.55992
1.54347
1.5294
1.51582
1.50371
1.49181
1.4769
1.46066
1.444
1.43107
1.42283
1.41502
1.40594
1.39587
1.38445
1.36982
1.35377
1.34153
1.33122
1.32267
1.31414
1.3038
1.29112
1.27903
1.26789
1.25912
1.25142
1.24373
1.23572
1.22703
1.21649
1.20326
1.19025
1.18276
1.17774
1.17234
1.16616
1.15944
1.1513
1.14444
1.13711
1.12607
1.11547
1.10851
1.56952
1.56334
1.54119
1.50337
1.45212
1.38575
1.33018
1.29056
1.25125
1.20033
1.15637
1.12813
1.1086
1.08976
1.07502
1.05804
1.04116
1.03968
1.04672
1.12388
1.31782
1.50857
1.58163
1.57481
1.55762
1.54145
1.5294
1.52035
1.51417
1.50632
1.49396
1.49427
1.52372
1.61219
1.74158
1.81455
1.85813
1.85326
1.84332
1.82309
1.79222
1.76058
1.73516
1.71495
1.69718
1.67741
1.65652
1.63522
1.61702
1.60308
1.59075
1.57691
1.56066
1.54549
1.53179
1.51605
1.49973
1.48926
1.4807
1.46817
1.45181
1.43489
1.42232
1.41171
1.40073
1.38986
1.37846
1.36412
1.34564
1.33642
1.33376
1.32871
1.32166
1.31116
1.29303
1.27653
1.27095
1.26583
1.25961
1.2523
1.24429
1.23442
1.22136
1.20672
1.19159
1.18397
1.18074
1.17626
1.1713
1.16673
1.15799
1.14858
1.14299
1.13927
1.14153
1.15905
1.57644
1.5724
1.56591
1.54425
1.50648
1.45919
1.40891
1.35073
1.31221
1.28165
1.24462
1.18696
1.15697
1.14448
1.13036
1.10809
1.08291
1.09093
1.17627
1.37738
1.53724
1.59563
1.58967
1.56985
1.54419
1.52718
1.51476
1.50538
1.49482
1.48136
1.46232
1.45306
1.44527
1.44753
1.48697
1.58412
1.69827
1.75502
1.7945
1.79004
1.78099
1.76865
1.74586
1.72282
1.70286
1.68121
1.65844
1.63616
1.61551
1.59942
1.58659
1.57539
1.56308
1.54747
1.53045
1.51333
1.49925
1.48707
1.47315
1.45953
1.44565
1.43295
1.42161
1.41073
1.39976
1.38855
1.37724
1.36334
1.34798
1.33528
1.32473
1.31882
1.31279
1.30445
1.29223
1.27833
1.26558
1.25672
1.25072
1.24517
1.23969
1.23285
1.22245
1.20856
1.19443
1.18864
1.18753
1.1856
1.1865
1.18998
1.19075
1.19211
1.20034
1.21227
1.22668
1.26278
1.58104
1.57924
1.57513
1.56876
1.54816
1.50996
1.46961
1.42542
1.37075
1.33414
1.30524
1.26488
1.22365
1.1897
1.17292
1.15206
1.16587
1.27503
1.47506
1.60803
1.63441
1.62045
1.59345
1.56543
1.54402
1.5285
1.51344
1.49807
1.48111
1.46323
1.44329
1.43197
1.42229
1.41
1.39213
1.39536
1.43449
1.52619
1.63639
1.71795
1.74959
1.7501
1.74179
1.72364
1.70038
1.67776
1.65793
1.64003
1.62103
1.60381
1.58931
1.57469
1.55853
1.54092
1.52392
1.50899
1.49603
1.48305
1.46919
1.45881
1.44903
1.43628
1.42013
1.40499
1.39672
1.39061
1.38101
1.36929
1.35666
1.33976
1.32392
1.31513
1.30918
1.30208
1.2929
1.2805
1.26796
1.25795
1.25062
1.24559
1.24069
1.23427
1.22689
1.21778
1.20869
1.20946
1.21656
1.23206
1.25771
1.28002
1.29225
1.30919
1.3206
1.32432
1.33143
1.3389
1.58302
1.58226
1.58058
1.5775
1.57036
1.54999
1.51709
1.48213
1.43173
1.39123
1.35748
1.323
1.27887
1.24672
1.22548
1.25706
1.40397
1.59107
1.69245
1.6897
1.66784
1.6361
1.60425
1.57649
1.5546
1.53521
1.51519
1.49551
1.47618
1.45627
1.43502
1.42052
1.40751
1.39202
1.37384
1.35987
1.34252
1.34562
1.38205
1.48947
1.5982
1.68185
1.6925
1.68551
1.68043
1.6663
1.64813
1.63626
1.62612
1.61136
1.59218
1.57285
1.55532
1.53962
1.52306
1.50546
1.4885
1.4753
1.46771
1.46019
1.44825
1.43336
1.41845
1.40511
1.39044
1.37639
1.36702
1.35859
1.34942
1.33946
1.32787
1.31407
1.30238
1.29544
1.28954
1.28195
1.27407
1.26565
1.25696
1.25276
1.25115
1.25195
1.25991
1.27223
1.29003
1.31079
1.33217
1.35484
1.37284
1.37656
1.38122
1.38568
1.38487
1.38296
1.38054
1.37357
1.58125
1.58136
1.5822
1.58281
1.58107
1.57226
1.55235
1.52422
1.48831
1.44186
1.40691
1.37257
1.32858
1.31414
1.37249
1.55014
1.71976
1.76781
1.75491
1.72193
1.68564
1.65242
1.62172
1.59415
1.56979
1.5466
1.52323
1.49958
1.47644
1.45398
1.43183
1.41462
1.39892
1.38229
1.36259
1.34574
1.32928
1.31482
1.30163
1.30936
1.35148
1.44813
1.54062
1.61515
1.65722
1.65703
1.65028
1.63336
1.6131
1.59466
1.57614
1.56108
1.55128
1.54012
1.52371
1.50551
1.48978
1.47361
1.45796
1.45019
1.44396
1.4345
1.42144
1.4067
1.38986
1.37125
1.36206
1.358
1.3522
1.34292
1.32899
1.31276
1.30187
1.29745
1.29298
1.28788
1.28369
1.28375
1.28963
1.30345
1.32473
1.35488
1.37775
1.39606
1.41245
1.41855
1.42414
1.42396
1.41392
1.40231
1.39774
1.39386
1.38953
1.38474
1.38078
1.37188
1.57515
1.57561
1.57736
1.57996
1.58041
1.57766
1.56818
1.54888
1.52236
1.48573
1.45255
1.40897
1.41819
1.51954
1.69977
1.83882
1.84931
1.82745
1.7876
1.74601
1.70726
1.6719
1.63951
1.61022
1.58364
1.55831
1.53292
1.50671
1.48013
1.45267
1.42721
1.40812
1.39086
1.3733
1.35667
1.34163
1.32445
1.30731
1.29185
1.27709
1.26494
1.27134
1.31345
1.40053
1.50107
1.57477
1.61942
1.61636
1.60369
1.58356
1.56541
1.54943
1.53455
1.52549
1.51856
1.50753
1.49066
1.47174
1.45371
1.44133
1.43219
1.42116
1.40953
1.39874
1.38714
1.37435
1.36346
1.35413
1.34511
1.3381
1.33018
1.31721
1.30954
1.30895
1.31355
1.32858
1.35431
1.38548
1.41436
1.43554
1.44942
1.45995
1.46549
1.47343
1.47295
1.47056
1.46431
1.45183
1.43377
1.42254
1.41635
1.4096
1.39996
1.39034
1.38407
1.36996
1.58131
1.58115
1.57704
1.57668
1.57799
1.57816
1.57474
1.56478
1.54296
1.51678
1.4893
1.5264
1.68666
1.85574
1.9196
1.91318
1.88039
1.84032
1.80119
1.76279
1.72467
1.68767
1.65327
1.62235
1.59439
1.56792
1.54167
1.51506
1.488
1.45972
1.43319
1.41008
1.38843
1.36721
1.34973
1.33581
1.32032
1.30517
1.2882
1.27113
1.25734
1.24356
1.23659
1.2438
1.28619
1.36987
1.47389
1.52884
1.55641
1.56205
1.55798
1.54823
1.53127
1.51851
1.50835
1.49624
1.48147
1.4661
1.44907
1.43405
1.42269
1.41179
1.40283
1.39507
1.38556
1.37275
1.36087
1.3534
1.34697
1.34226
1.34458
1.35568
1.37597
1.40445
1.4311
1.46055
1.48307
1.50406
1.50929
1.50287
1.49023
1.48388
1.48071
1.47838
1.47414
1.46775
1.4593
1.44583
1.42545
1.41337
1.40719
1.39988
1.39466
1.39134
1.38707
1.37336
1.54951
1.55447
1.55645
1.56492
1.57496
1.57832
1.5755
1.56891
1.55465
1.55839
1.65352
1.83903
1.9824
2.01042
1.99056
1.94134
1.89214
1.84852
1.80928
1.77195
1.73493
1.69847
1.66403
1.63249
1.60336
1.5754
1.54768
1.51984
1.49139
1.46271
1.43664
1.4134
1.39242
1.37335
1.35532
1.33573
1.31529
1.29682
1.28068
1.27123
1.25652
1.23824
1.22573
1.21763
1.21346
1.2218
1.26013
1.33511
1.40635
1.46841
1.49819
1.51924
1.51837
1.51476
1.50817
1.4961
1.48014
1.46346
1.44459
1.42708
1.41381
1.40396
1.3981
1.39323
1.38724
1.37613
1.36406
1.36631
1.38027
1.41008
1.45127
1.49165
1.5213
1.53779
1.54848
1.55838
1.55781
1.55227
1.54194
1.52984
1.51819
1.50636
1.49507
1.48385
1.47393
1.46334
1.45236
1.43782
1.41898
1.4072
1.40089
1.39295
1.38643
1.38264
1.37854
1.36547
1.38594
1.51157
1.55206
1.56831
1.57206
1.56948
1.56826
1.57066
1.60842
1.77448
1.98925
2.05055
2.04502
2.02392
1.98802
1.94614
1.90202
1.85855
1.81745
1.77911
1.74234
1.70601
1.67066
1.63732
1.60599
1.57616
1.54801
1.52172
1.49564
1.46836
1.44184
1.4164
1.391
1.36883
1.35208
1.33686
1.31969
1.30155
1.2839
1.26668
1.2465
1.22953
1.21753
1.2096
1.20242
1.19394
1.17937
1.18275
1.20831
1.27951
1.36151
1.43894
1.46727
1.47929
1.48726
1.48548
1.47768
1.4646
1.44382
1.42598
1.41387
1.40527
1.40175
1.40298
1.40843
1.42183
1.44493
1.47978
1.51775
1.55767
1.5774
1.57955
1.58291
1.5803
1.57613
1.57035
1.5616
1.54812
1.53323
1.5198
1.50969
1.50186
1.4955
1.48855
1.48033
1.47084
1.45787
1.4387
1.41862
1.40744
1.39966
1.39047
1.38107
1.3758
1.37157
1.35851
1.12064
1.33616
1.49556
1.54888
1.54922
1.55331
1.58342
1.6825
1.87367
2.06007
2.13371
2.12133
2.07283
2.02137
1.98353
1.94891
1.91049
1.86832
1.82568
1.7851
1.747
1.71075
1.67597
1.64278
1.61115
1.5808
1.55132
1.5223
1.49522
1.47328
1.4525
1.42615
1.39877
1.37686
1.35702
1.33703
1.3189
1.30336
1.28605
1.26433
1.24433
1.23184
1.22071
1.20895
1.19532
1.18179
1.16817
1.16114
1.15663
1.16028
1.18793
1.25435
1.34155
1.3986
1.43668
1.45275
1.4497
1.4391
1.43678
1.43358
1.43108
1.43876
1.46262
1.50346
1.53785
1.56315
1.58699
1.61416
1.63314
1.64088
1.63708
1.62617
1.61775
1.60924
1.59803
1.58153
1.55996
1.54103
1.52472
1.51176
1.50275
1.49569
1.48863
1.47988
1.47038
1.46157
1.45204
1.44014
1.42414
1.40875
1.39653
1.38675
1.37821
1.37221
1.36693
1.3543
1.00882
1.08366
1.28584
1.46305
1.51789
1.62614
1.79292
1.96046
2.07366
2.11849
2.11789
2.1082
2.08044
2.03627
1.99265
1.95204
1.91254
1.87355
1.83428
1.79421
1.75393
1.71481
1.67816
1.64446
1.61331
1.58405
1.55621
1.52943
1.50363
1.47612
1.44542
1.42518
1.41364
1.39684
1.37569
1.35421
1.33102
1.30214
1.28214
1.2727
1.26298
1.25027
1.23386
1.21574
1.19464
1.17619
1.1657
1.16062
1.15412
1.14572
1.13646
1.14154
1.1728
1.22925
1.29444
1.3575
1.40836
1.42779
1.46059
1.50153
1.53649
1.57833
1.62382
1.65298
1.65692
1.65544
1.65089
1.65119
1.65046
1.64824
1.64192
1.62839
1.61046
1.5983
1.58675
1.5734
1.56118
1.54648
1.53074
1.51691
1.50617
1.49684
1.48668
1.47555
1.46433
1.45456
1.44528
1.4341
1.42193
1.40882
1.39648
1.38735
1.38007
1.37341
1.36834
1.35793
1.00016
1.00455
1.06217
1.25545
1.54506
1.80252
1.99142
2.11182
2.17326
2.15139
2.11263
2.09655
2.0787
2.04689
2.00196
1.95476
1.91176
1.87324
1.83605
1.79737
1.75702
1.7169
1.67921
1.64499
1.61397
1.58526
1.55786
1.53059
1.50254
1.47447
1.4506
1.42966
1.40545
1.38205
1.35906
1.33605
1.31488
1.30008
1.28835
1.27193
1.25314
1.23522
1.21761
1.19944
1.18207
1.16786
1.15726
1.15072
1.14326
1.13508
1.12532
1.1205
1.11478
1.11963
1.146
1.19737
1.29004
1.43793
1.54384
1.62023
1.67403
1.71129
1.73129
1.73422
1.72386
1.71015
1.69807
1.67987
1.66239
1.64879
1.63575
1.62073
1.60034
1.58542
1.57427
1.56465
1.55724
1.54732
1.53563
1.52281
1.50934
1.49685
1.48522
1.47357
1.46186
1.45092
1.4406
1.43069
1.42018
1.40782
1.39685
1.38814
1.38144
1.37514
1.36796
1.35312
1.00016
1.00455
1.06217
1.25546
1.54505
1.80252
1.99142
2.11182
2.17326
2.15139
2.11263
2.09655
2.0787
2.04689
2.00196
1.95476
1.91176
1.87324
1.83605
1.79737
1.75702
1.71691
1.67921
1.64499
1.61397
1.58526
1.55786
1.53059
1.50254
1.47448
1.45061
1.42966
1.40545
1.38205
1.35906
1.33605
1.31488
1.30007
1.28834
1.27193
1.25313
1.23522
1.21762
1.19939
1.18205
1.16803
1.15741
1.15079
1.14327
1.13508
1.12531
1.12051
1.11503
1.11906
1.14292
1.2141
1.32996
1.44226
1.53968
1.61673
1.68001
1.71804
1.72548
1.72348
1.72184
1.71301
1.69092
1.68041
1.67299
1.65722
1.63933
1.62537
1.60599
1.5872
1.57388
1.56398
1.55603
1.54622
1.53506
1.52276
1.50918
1.49566
1.48331
1.47218
1.46191
1.45207
1.44113
1.42939
1.41963
1.41044
1.40001
1.38952
1.382
1.37537
1.36809
1.35312
1.00882
1.08366
1.28584
1.46305
1.51789
1.62614
1.79293
1.96046
2.07366
2.11849
2.11789
2.1082
2.08044
2.03627
1.99265
1.95204
1.91253
1.87355
1.83428
1.79421
1.75393
1.71481
1.67816
1.64446
1.61331
1.58405
1.55621
1.52943
1.50364
1.47612
1.44542
1.42518
1.41364
1.39684
1.37569
1.35421
1.33101
1.30213
1.28215
1.2727
1.26297
1.25026
1.23387
1.21563
1.19445
1.1765
1.16627
1.16092
1.1541
1.14563
1.13654
1.14139
1.17331
1.2297
1.29564
1.35528
1.41382
1.43244
1.45799
1.49479
1.54338
1.59628
1.62226
1.63742
1.65048
1.65253
1.64765
1.64489
1.64799
1.64759
1.64453
1.6362
1.61811
1.59741
1.5816
1.56888
1.55908
1.54946
1.53689
1.52194
1.50705
1.49314
1.48069
1.47113
1.46384
1.45619
1.44642
1.43574
1.42253
1.40698
1.39534
1.38784
1.3826
1.37572
1.36806
1.35401
1.12064
1.33616
1.49556
1.54888
1.54922
1.55331
1.58343
1.6825
1.87367
2.06007
2.13371
2.12133
2.07283
2.02137
1.98353
1.94891
1.91049
1.86832
1.82568
1.7851
1.747
1.71075
1.67597
1.64278
1.61115
1.5808
1.55132
1.5223
1.49523
1.47328
1.4525
1.42616
1.39877
1.37686
1.35702
1.33703
1.3189
1.30336
1.28605
1.26432
1.24432
1.23183
1.22072
1.20891
1.1953
1.18187
1.16826
1.16111
1.15663
1.16026
1.18883
1.25405
1.34026
1.40099
1.43854
1.44844
1.44756
1.4426
1.4376
1.43109
1.43284
1.44581
1.46662
1.49498
1.52912
1.56649
1.59732
1.6152
1.62731
1.63967
1.6391
1.63211
1.61728
1.605
1.59267
1.57788
1.56002
1.54431
1.5294
1.51417
1.50314
1.49293
1.48325
1.47537
1.46994
1.4639
1.45453
1.43873
1.42065
1.40702
1.39639
1.38692
1.38001
1.3742
1.36724
1.35334
1.38594
1.51157
1.55206
1.56831
1.57206
1.56948
1.56826
1.57066
1.60842
1.77448
1.98925
2.05055
2.04502
2.02392
1.98802
1.94614
1.90202
1.85855
1.81745
1.77911
1.74234
1.70601
1.67066
1.63732
1.60599
1.57616
1.54801
1.52172
1.49564
1.46835
1.44184
1.4164
1.39101
1.36883
1.35207
1.33686
1.31969
1.30155
1.2839
1.26668
1.24649
1.22953
1.21751
1.2096
1.20244
1.19388
1.17929
1.18269
1.20813
1.28024
1.3618
1.43851
1.46781
1.4809
1.48706
1.48438
1.4766
1.46474
1.44542
1.42476
1.41367
1.4079
1.40423
1.40192
1.40696
1.42203
1.45048
1.48348
1.51436
1.55129
1.57664
1.57999
1.58143
1.57756
1.57419
1.56934
1.56242
1.55214
1.53777
1.5188
1.50672
1.49837
1.49174
1.48711
1.48224
1.4745
1.45985
1.43526
1.41593
1.40777
1.39988
1.39097
1.38372
1.37806
1.37277
1.35898
1.54951
1.55447
1.55645
1.56492
1.57496
1.57832
1.5755
1.56891
1.55465
1.55839
1.65352
1.83902
1.9824
2.01042
1.99056
1.94134
1.89214
1.84852
1.80928
1.77195
1.73493
1.69847
1.66403
1.63249
1.60336
1.5754
1.54768
1.51984
1.49139
1.4627
1.43664
1.4134
1.39242
1.37335
1.35532
1.33573
1.31529
1.29682
1.28068
1.27125
1.25653
1.23824
1.2257
1.21763
1.21348
1.22171
1.26038
1.33498
1.40606
1.4694
1.49799
1.51918
1.51852
1.51498
1.50772
1.49552
1.47978
1.46354
1.44483
1.42509
1.41419
1.40598
1.39888
1.39284
1.38606
1.37528
1.36603
1.36754
1.37895
1.40692
1.4482
1.48952
1.51755
1.53596
1.55045
1.56129
1.56116
1.55629
1.54448
1.52589
1.51394
1.50566
1.49589
1.48535
1.47657
1.46598
1.45309
1.43516
1.41681
1.40807
1.40149
1.39277
1.38737
1.38338
1.37894
1.36567
1.58131
1.58115
1.57704
1.57668
1.57799
1.57816
1.57474
1.56478
1.54296
1.51678
1.4893
1.5264
1.68666
1.85574
1.9196
1.91318
1.88039
1.84032
1.80119
1.76279
1.72467
1.68767
1.65327
1.62235
1.59439
1.56792
1.54167
1.51506
1.488
1.45972
1.43319
1.41008
1.38843
1.36721
1.34973
1.33581
1.32032
1.30516
1.2882
1.27113
1.25734
1.24356
1.23659
1.24381
1.28618
1.36987
1.47407
1.52848
1.55649
1.56216
1.55793
1.54784
1.53121
1.51861
1.50806
1.49605
1.48192
1.46676
1.44879
1.43332
1.42276
1.41249
1.40279
1.39423
1.38393
1.37204
1.36228
1.35458
1.34718
1.34186
1.3439
1.35553
1.37545
1.40395
1.43376
1.46487
1.48577
1.50207
1.50594
1.498
1.4883
1.48369
1.48292
1.48031
1.47477
1.46814
1.45853
1.44281
1.42382
1.41476
1.40835
1.39976
1.39437
1.39144
1.387
1.37337
1.57515
1.57561
1.57736
1.57996
1.58041
1.57766
1.56818
1.54888
1.52236
1.48573
1.45255
1.40897
1.41819
1.51954
1.69977
1.83882
1.84931
1.82745
1.7876
1.74601
1.70726
1.6719
1.63951
1.61022
1.58364
1.55831
1.53292
1.50671
1.48013
1.45267
1.42721
1.40812
1.39086
1.3733
1.35667
1.34163
1.32445
1.30731
1.29185
1.27709
1.26494
1.27134
1.31343
1.4006
1.50083
1.57506
1.61947
1.61632
1.60365
1.58356
1.56498
1.54885
1.53446
1.52574
1.51885
1.50781
1.49087
1.47157
1.45344
1.44151
1.43211
1.42115
1.40941
1.39747
1.38564
1.3747
1.36491
1.35493
1.34533
1.33789
1.32959
1.31692
1.31049
1.3093
1.31388
1.32813
1.35245
1.38091
1.41095
1.4337
1.44928
1.46275
1.47045
1.47664
1.47472
1.46975
1.46207
1.44949
1.43414
1.42422
1.41756
1.41015
1.39937
1.38862
1.38203
1.36842
1.58125
1.58136
1.5822
1.58281
1.58107
1.57226
1.55235
1.52422
1.48831
1.44186
1.40691
1.37257
1.32858
1.31414
1.37249
1.55014
1.71976
1.76781
1.75491
1.72193
1.68564
1.65242
1.62172
1.59415
1.56979
1.5466
1.52323
1.49958
1.47644
1.45398
1.43183
1.41461
1.39892
1.38229
1.36259
1.34574
1.32928
1.31482
1.30163
1.30936
1.35148
1.44812
1.54061
1.61519
1.65713
1.65707
1.6503
1.63323
1.61309
1.59465
1.576
1.56121
1.55155
1.54029
1.5237
1.5056
1.4898
1.47316
1.45795
1.45046
1.44389
1.43428
1.42118
1.4061
1.38922
1.37204
1.36373
1.35873
1.35158
1.34154
1.32789
1.31259
1.30206
1.2974
1.29303
1.28821
1.28342
1.28279
1.28926
1.30538
1.32775
1.35777
1.38012
1.39711
1.40988
1.41568
1.42259
1.423
1.41496
1.40361
1.39867
1.39392
1.38924
1.38418
1.38033
1.37162
1.58302
1.58226
1.58058
1.5775
1.57036
1.54999
1.51709
1.48213
1.43173
1.39123
1.35748
1.323
1.27887
1.24672
1.22548
1.25706
1.40397
1.59107
1.69245
1.6897
1.66784
1.6361
1.60425
1.57649
1.5546
1.53521
1.51519
1.49551
1.47618
1.45627
1.43502
1.42052
1.40751
1.39202
1.37384
1.35987
1.34252
1.34562
1.38205
1.48947
1.5982
1.68184
1.69251
1.68551
1.68042
1.66636
1.64812
1.63626
1.62612
1.61137
1.59219
1.5729
1.55541
1.53968
1.52308
1.50551
1.48841
1.47513
1.46774
1.46029
1.44826
1.43319
1.41832
1.40539
1.39127
1.37739
1.36756
1.35871
1.34922
1.33909
1.32767
1.31458
1.30279
1.29543
1.28973
1.28238
1.27416
1.26568
1.25717
1.25324
1.25196
1.25199
1.25914
1.2701
1.28641
1.30807
1.33147
1.35646
1.37393
1.37845
1.38212
1.38375
1.38417
1.3825
1.38049
1.37382
1.58104
1.57924
1.57513
1.56876
1.54816
1.50996
1.46961
1.42542
1.37075
1.33414
1.30524
1.26488
1.22365
1.1897
1.17292
1.15206
1.16587
1.27503
1.47506
1.60803
1.63441
1.62045
1.59345
1.56543
1.54402
1.5285
1.51344
1.49807
1.48111
1.46323
1.44329
1.43197
1.42229
1.41
1.39213
1.39536
1.43449
1.52619
1.63639
1.71795
1.74958
1.7501
1.74179
1.72364
1.70038
1.67775
1.65793
1.64004
1.62103
1.60382
1.58932
1.5747
1.55856
1.54095
1.52392
1.50893
1.49596
1.48308
1.46929
1.45886
1.44895
1.43611
1.42012
1.40538
1.39698
1.3904
1.38058
1.36893
1.3564
1.33978
1.3242
1.31551
1.30922
1.30193
1.29267
1.28022
1.26773
1.25794
1.25084
1.24582
1.24078
1.23407
1.22656
1.21736
1.20844
1.20945
1.21702
1.23323
1.25878
1.28006
1.29186
1.30792
1.31925
1.32405
1.3322
1.33975
1.57644
1.5724
1.56591
1.54425
1.50648
1.45919
1.40891
1.35073
1.31221
1.28165
1.24462
1.18696
1.15697
1.14448
1.13036
1.10809
1.08291
1.09093
1.17627
1.37738
1.53724
1.59563
1.58967
1.56985
1.54419
1.52718
1.51476
1.50538
1.49482
1.48136
1.46232
1.45306
1.44527
1.44753
1.48697
1.58412
1.69827
1.75502
1.7945
1.79004
1.78098
1.76865
1.74586
1.72282
1.70286
1.68121
1.65845
1.63616
1.6155
1.59943
1.58659
1.57539
1.56309
1.54747
1.53044
1.51331
1.49926
1.48711
1.47319
1.45957
1.4456
1.4329
1.42171
1.41081
1.39961
1.38823
1.37689
1.36317
1.34793
1.33553
1.32502
1.31877
1.31263
1.30426
1.29203
1.27815
1.26546
1.25674
1.25081
1.24526
1.23966
1.23273
1.22233
1.2085
1.19454
1.18878
1.18766
1.18568
1.18653
1.18956
1.19027
1.19161
1.20048
1.21325
1.22811
1.26378
1.56952
1.56334
1.54119
1.50337
1.45212
1.38575
1.33018
1.29056
1.25125
1.20033
1.15637
1.12813
1.1086
1.08976
1.07502
1.05804
1.04116
1.03968
1.04672
1.12388
1.31782
1.50857
1.58163
1.57481
1.55762
1.54145
1.5294
1.52035
1.51417
1.50632
1.49396
1.49427
1.52372
1.61219
1.74158
1.81455
1.85813
1.85326
1.84332
1.82309
1.79222
1.76058
1.73516
1.71495
1.69718
1.67741
1.65652
1.63522
1.61702
1.60308
1.59075
1.57691
1.56065
1.54548
1.53178
1.51605
1.49974
1.48928
1.4807
1.46817
1.45181
1.43492
1.42233
1.41165
1.4006
1.38964
1.37823
1.36411
1.34591
1.3364
1.33359
1.32854
1.32151
1.31095
1.29282
1.27656
1.27095
1.26578
1.25953
1.25223
1.24421
1.23434
1.22133
1.20676
1.19167
1.18403
1.18076
1.17626
1.17126
1.16665
1.15793
1.14857
1.14313
1.13962
1.14195
1.15928
1.55726
1.53825
1.49703
1.44484
1.37066
1.30219
1.26198
1.21668
1.1574
1.12534
1.11085
1.08597
1.05755
1.05242
1.05155
1.04793
1.04093
1.03961
1.04225
1.0493
1.10842
1.28239
1.50936
1.56637
1.56413
1.56472
1.55898
1.54014
1.52926
1.53112
1.55483
1.63512
1.752
1.85666
1.89873
1.88796
1.87255
1.85706
1.83256
1.80664
1.78071
1.75649
1.73618
1.71509
1.69476
1.67466
1.65775
1.64274
1.6284
1.6142
1.59683
1.57803
1.55991
1.54346
1.5294
1.51583
1.50371
1.4918
1.4769
1.46065
1.444
1.43108
1.42283
1.41499
1.40595
1.39588
1.38447
1.36996
1.3539
1.34157
1.3312
1.32258
1.31401
1.30364
1.29104
1.27903
1.26788
1.25908
1.25138
1.24369
1.23568
1.227
1.21649
1.20331
1.1903
1.18278
1.17774
1.17232
1.16614
1.15941
1.15128
1.14444
1.13713
1.1261
1.11549
1.10851
1.53582
1.49256
1.43146
1.35747
1.27232
1.22048
1.17678
1.12312
1.08254
1.06729
1.05443
1.03796
1.03517
1.03827
1.04623
1.0471
1.04762
1.05351
1.06152
1.06828
1.07658
1.11342
1.28269
1.47894
1.55665
1.57471
1.5752
1.57235
1.58251
1.64194
1.75763
1.87156
1.92485
1.94243
1.93499
1.91459
1.88346
1.84852
1.82153
1.79951
1.77767
1.75528
1.73444
1.71418
1.69367
1.67424
1.65915
1.64483
1.62943
1.61349
1.5956
1.57723
1.55998
1.54429
1.53021
1.51714
1.50548
1.49264
1.47694
1.45953
1.44384
1.4334
1.42522
1.41644
1.40682
1.39618
1.38352
1.36813
1.35329
1.34132
1.33121
1.32282
1.31465
1.30545
1.29522
1.28319
1.27055
1.26
1.25131
1.24334
1.23526
1.2265
1.21643
1.20543
1.19525
1.18614
1.17813
1.17117
1.16427
1.15702
1.14965
1.14304
1.13579
1.12525
1.11343
1.10135
1.49445
1.41411
1.33119
1.2253
1.16952
1.14936
1.111
1.06616
1.06146
1.05891
1.05479
1.05293
1.05461
1.0609
1.06514
1.06873
1.07466
1.08403
1.0895
1.09365
1.09325
1.09539
1.11898
1.27332
1.4488
1.53078
1.59366
1.68074
1.7687
1.87582
1.92358
1.95179
1.96047
1.9387
1.9146
1.89032
1.8686
1.84947
1.83068
1.80839
1.78409
1.76079
1.74102
1.72321
1.70594
1.68986
1.67464
1.65739
1.6385
1.61969
1.60059
1.58238
1.56588
1.55119
1.53859
1.52747
1.516
1.50179
1.48418
1.46583
1.45148
1.44154
1.43265
1.42348
1.41382
1.40305
1.39011
1.37477
1.35945
1.34694
1.33786
1.3309
1.32445
1.31733
1.30829
1.296
1.2811
1.26728
1.25697
1.24871
1.24104
1.23336
1.22553
1.21717
1.20674
1.19351
1.18162
1.17343
1.16682
1.16093
1.1556
1.14989
1.14232
1.13017
1.11591
1.10167
1.3971
1.2383
1.09939
0.990354
0.999047
1.01269
1.00766
1.0064
1.02513
1.05309
1.07351
1.09027
1.1046
1.10708
1.10644
1.10392
1.10631
1.11291
1.11408
1.11437
1.11402
1.11202
1.10979
1.12858
1.23185
1.43956
1.69603
1.88751
2.03263
2.11789
2.10177
2.04849
1.9845
1.93176
1.89843
1.87601
1.85752
1.84276
1.82484
1.80239
1.77772
1.75329
1.73223
1.71389
1.69703
1.682
1.66737
1.65002