/*--------------------------------*- C++ -*----------------------------------*\
  =========                 |
  \\      /  F ield         | OpenFOAM: The Open Source CFD Toolbox
   \\    /   O peration     | Website:  https://openfoam.org
    \\  /    A nd           | Version:  7
     \\/     M anipulation  |
\*---------------------------------------------------------------------------*/
FoamFile
{
    version     2.0;
    format      ascii;
    class       volVectorField;
    location    "1";
    object      U;
}
// * * * * * * * * * * * * * * * * * * * * * * * * * * * * * * * * * * * * * //

dimensions      [0 1 -1 0 0 0 0];

internalField   nonuniform List<vector> 
4608
(
(3 7.03336e-17 0)
(3 2.67446e-17 0)
(3 -2.51307e-16 0)
(3 -2.16764e-16 0)
(3 5.11995e-17 0)
(3 1.18143e-16 0)
(3 -1.34123e-16 0)
(3 6.16235e-17 0)
(3 1.66282e-16 0)
(3 1.85341e-16 0)
(3 -3.21292e-17 0)
(3 -4.26405e-16 0)
(3 -1.12315e-16 0)
(3 7.18091e-17 0)
(3 -7.48169e-17 0)
(3 1.629e-16 0)
(3 3.50365e-16 0)
(3 9.77037e-16 0)
(3 1.11803e-15 0)
(3 -5.64429e-18 0)
(3 -8.62376e-16 0)
(3 -8.05668e-16 0)
(3 -6.66533e-16 0)
(3 -3.85537e-16 0)
(3 3.38828e-16 0)
(3 3.03346e-16 0)
(3 1.703e-16 0)
(3 -1.32766e-16 0)
(3 -1.64681e-16 0)
(3 3.70992e-17 0)
(3 -1.22098e-17 0)
(3 3.32322e-16 0)
(3 6.49063e-16 0)
(3 6.66022e-16 0)
(3 1.87323e-16 0)
(3 -5.75605e-16 0)
(3 -1.82377e-16 0)
(3 1.61823e-15 0)
(3 1.19531e-15 0)
(3 9.8971e-16 0)
(3 1.17433e-15 0)
(3 1.46949e-15 0)
(3 1.38295e-15 0)
(3 1.99078e-16 0)
(3 -1.29272e-15 0)
(3 -6.42746e-16 0)
(3 3.96449e-16 0)
(3 2.26299e-16 0)
(3 1.40064e-17 0)
(3 3.94621e-17 0)
(3 2.63944e-16 0)
(3 2.81434e-16 0)
(3 2.85639e-17 0)
(3 5.05822e-17 0)
(3 3.05414e-16 0)
(3 6.00874e-16 0)
(3 5.85326e-16 0)
(3 4.12268e-16 0)
(3 3.73689e-16 0)
(3 5.62091e-16 0)
(3 -3.2027e-17 0)
(3 2.36911e-16 0)
(3 1.22844e-15 0)
(3 1.75167e-15 0)
(3 1.72989e-15 0)
(3 1.83375e-15 0)
(3 9.21317e-16 0)
(3 4.04074e-16 0)
(3 -4.59058e-16 0)
(3 -6.17045e-16 0)
(3 -5.37655e-17 0)
(3 -7.53497e-16 0)
(3 -2.13172e-16 0)
(3 2.02542e-16 0)
(3 4.5147e-16 0)
(3 2.05592e-16 0)
(3 6.7456e-17 0)
(3 2.14188e-16 0)
(3 2.76048e-16 0)
(3 1.56634e-16 0)
(3 -2.03576e-17 0)
(3 2.54772e-16 0)
(3 8.02978e-16 0)
(3 6.21198e-16 0)
(3 3.35877e-16 0)
(3 3.21181e-16 0)
(3 9.46075e-16 0)
(3 1.87903e-15 0)
(3 1.94508e-15 0)
(3 1.87524e-15 0)
(3 1.59568e-15 0)
(3 1.31052e-15 0)
(3 1.75607e-15 0)
(3 7.72804e-16 0)
(3 -8.66981e-16 0)
(3 -1.3393e-15 0)
(3 -2.66422e-17 0)
(3 2.30183e-16 0)
(3 2.71314e-16 0)
(3 -2.78832e-16 0)
(3 -6.29159e-16 0)
(3 -4.34504e-16 0)
(3 3.21237e-16 0)
(3 7.6353e-16 0)
(3 1.08216e-15 0)
(3 1.5252e-15 0)
(3 1.33292e-15 0)
(3 -5.39506e-16 0)
(3 -6.78858e-16 0)
(3 -1.59438e-17 0)
(3 6.17612e-16 0)
(3 1.78366e-15 0)
(3 1.88047e-15 0)
(3 1.53669e-15 0)
(3 1.83023e-15 0)
(3 2.60536e-15 0)
(3 3.81078e-15 0)
(3 3.43e-15 0)
(3 -2.61062e-16 0)
(3 -8.89708e-16 0)
(3 1.73937e-16 0)
(3 -5.50421e-17 0)
(3 -3.95443e-16 0)
(3 -2.2613e-16 0)
(3 2.20532e-16 0)
(3 2.70595e-16 0)
(3 6.45823e-16 0)
(3 8.76236e-16 0)
(3 8.77821e-16 0)
(3 4.28744e-17 0)
(3 -7.45294e-16 0)
(3 -5.0181e-16 0)
(3 -6.04864e-16 0)
(3 -5.30082e-16 0)
(3 -4.43424e-16 0)
(3 3.67563e-16 0)
(3 8.05502e-16 0)
(3 4.31085e-16 0)
(3 7.70107e-16 0)
(3 1.20368e-15 0)
(3 1.80587e-15 0)
(3 1.93707e-15 0)
(3 1.61453e-15 0)
(3 1.9657e-15 0)
(3 2.63641e-17 0)
(3 -2.40579e-16 0)
(3 -1.06686e-16 0)
(3 7.06476e-16 0)
(3 7.64062e-16 0)
(3 4.70017e-16 0)
(3 -5.09053e-16 0)
(3 -5.03555e-16 0)
(3 -7.84424e-16 0)
(3 -1.04125e-15 0)
(3 -8.09406e-16 0)
(3 1.15629e-16 0)
(3 4.28918e-16 0)
(3 2.49182e-16 0)
(3 3.5802e-16 0)
(3 3.02732e-16 0)
(3 6.75778e-16 0)
(3 7.99414e-16 0)
(3 7.38962e-16 0)
(3 6.72206e-16 0)
(3 8.27437e-16 0)
(3 1.14007e-15 0)
(3 1.45158e-15 0)
(3 2.6178e-15 0)
(3 -2.86346e-16 0)
(3 -3.81686e-16 0)
(3 -2.16555e-16 0)
(3 -3.71997e-17 0)
(3 -2.81945e-16 0)
(3 -2.54041e-16 0)
(3 -3.26083e-16 0)
(3 -4.60466e-16 0)
(3 -1.19438e-15 0)
(3 -1.21188e-15 0)
(3 -2.02786e-16 0)
(3 5.43077e-16 0)
(3 8.8771e-16 0)
(3 7.69992e-16 0)
(3 7.13226e-16 0)
(3 4.56988e-16 0)
(3 4.10547e-16 0)
(3 9.64652e-16 0)
(3 1.11829e-15 0)
(3 8.77628e-16 0)
(3 5.94961e-16 0)
(3 8.20446e-16 0)
(3 9.66603e-16 0)
(3 1.73133e-15 0)
(3 1.31974e-16 0)
(3 3.77011e-16 0)
(3 -8.39973e-17 0)
(3 -3.0118e-16 0)
(3 -1.07795e-16 0)
(3 1.07604e-16 0)
(3 3.33361e-16 0)
(3 2.73332e-16 0)
(3 -1.02668e-15 0)
(3 -1.97535e-15 0)
(3 -1.83653e-15 0)
(3 -1.07015e-15 0)
(3 -5.57157e-16 0)
(3 1.93702e-17 0)
(3 -3.57829e-16 0)
(3 -7.81383e-16 0)
(3 -1.00349e-15 0)
(3 -6.10718e-16 0)
(3 1.00895e-15 0)
(3 1.50051e-15 0)
(3 1.92366e-15 0)
(3 2.25041e-15 0)
(3 2.85518e-15 0)
(3 2.47766e-15 0)
(3 1.02876e-17 0)
(3 1.61718e-18 0)
(3 7.08812e-17 0)
(3 -8.83361e-17 0)
(3 -3.55982e-17 0)
(3 -2.65564e-16 0)
(3 -3.32306e-16 0)
(3 -6.36821e-16 0)
(3 -1.1648e-15 0)
(3 -1.25456e-15 0)
(3 -1.98281e-15 0)
(3 -1.86065e-15 0)
(3 -1.2185e-15 0)
(3 -8.20189e-16 0)
(3 -8.12379e-16 0)
(3 -1.12169e-15 0)
(3 -8.59262e-16 0)
(3 -1.03914e-15 0)
(3 -4.83272e-17 0)
(3 1.35216e-15 0)
(3 1.86093e-15 0)
(3 2.63409e-15 0)
(3 2.85467e-15 0)
(3 2.54034e-15 0)
(3 -1.4737e-16 0)
(3 -2.3761e-16 0)
(3 2.23968e-16 0)
(3 1.86473e-16 0)
(3 -1.36997e-16 0)
(3 -4.80848e-16 0)
(3 -1.09153e-15 0)
(3 -1.66397e-15 0)
(3 -1.39768e-15 0)
(3 2.71634e-16 0)
(3 2.3044e-16 0)
(3 -9.5835e-16 0)
(3 -1.29983e-15 0)
(3 -1.23757e-15 0)
(3 -6.28138e-16 0)
(3 -4.11173e-16 0)
(3 -3.17909e-16 0)
(3 -6.09713e-16 0)
(3 -1.30971e-16 0)
(3 -6.06271e-17 0)
(3 1.21782e-15 0)
(3 7.92216e-16 0)
(3 3.6761e-16 0)
(3 -7.0726e-16 0)
(3 1.33538e-16 0)
(3 1.71774e-16 0)
(3 1.232e-16 0)
(3 2.79908e-16 0)
(3 2.67739e-16 0)
(3 1.7546e-16 0)
(3 -1.94711e-16 0)
(3 -2.53977e-16 0)
(3 6.6668e-16 0)
(3 2.05809e-15 0)
(3 2.03918e-15 0)
(3 9.48684e-16 0)
(3 1.46676e-16 0)
(3 1.01026e-15 0)
(3 7.10806e-16 0)
(3 1.89134e-16 0)
(3 2.78239e-16 0)
(3 4.7381e-16 0)
(3 6.78905e-16 0)
(3 6.24968e-16 0)
(3 4.42253e-16 0)
(3 -7.25184e-16 0)
(3 -6.31299e-16 0)
(3 -6.21891e-16 0)
(3 -5.34182e-17 0)
(3 -9.32444e-17 0)
(3 2.60699e-16 0)
(3 2.02592e-16 0)
(3 3.05384e-16 0)
(3 5.62228e-16 0)
(3 6.48842e-16 0)
(3 8.41908e-16 0)
(3 9.34265e-16 0)
(3 7.46988e-16 0)
(3 4.84186e-16 0)
(3 2.22305e-16 0)
(3 3.66351e-16 0)
(3 7.08211e-16 0)
(3 1.65806e-15 0)
(3 1.828e-15 0)
(3 9.83933e-16 0)
(3 9.28331e-16 0)
(3 1.27988e-15 0)
(3 1.29199e-15 0)
(3 1.76635e-16 0)
(3 -3.52002e-16 0)
(3 6.43985e-17 0)
(3 3.3806e-16 0)
(3 -1.09172e-16 0)
(3 -3.16436e-16 0)
(3 4.95244e-17 0)
(3 4.01765e-16 0)
(3 3.19486e-16 0)
(3 2.35225e-16 0)
(3 -1.20949e-17 0)
(3 5.74604e-16 0)
(3 6.14545e-16 0)
(3 -5.86008e-16 0)
(3 -4.8663e-16 0)
(3 1.07791e-17 0)
(3 2.82813e-16 0)
(3 8.82917e-17 0)
(3 8.01118e-17 0)
(3 5.76981e-16 0)
(3 9.59235e-16 0)
(3 1.37568e-15 0)
(3 1.79108e-15 0)
(3 1.70436e-15 0)
(3 3.67584e-16 0)
(3 8.41587e-16 0)
(3 2.00309e-15 0)
(3 2.82171e-15 0)
(3 2.33546e-18 0)
(3 8.95022e-17 0)
(3 -4.64294e-16 0)
(3 -2.66222e-16 0)
(3 -8.57886e-17 0)
(3 -8.56108e-17 0)
(3 -3.8542e-16 0)
(3 -6.86546e-17 0)
(3 2.60652e-16 0)
(3 -1.26894e-16 0)
(3 2.77935e-16 0)
(3 1.13936e-15 0)
(3 1.54723e-15 0)
(3 1.3723e-15 0)
(3 5.92729e-16 0)
(3 6.88527e-16 0)
(3 1.49342e-15 0)
(3 2.18106e-15 0)
(3 2.4923e-15 0)
(3 2.1571e-15 0)
(3 7.52364e-16 0)
(3 5.33228e-16 0)
(3 1.64611e-15 0)
(3 4.25999e-15 0)
(3 -4.69169e-17 0)
(3 1.41065e-16 0)
(3 2.58409e-16 0)
(3 -2.91221e-16 0)
(3 -3.07718e-16 0)
(3 -2.42079e-16 0)
(3 -1.30211e-16 0)
(3 1.39306e-16 0)
(3 4.14544e-16 0)
(3 3.45978e-16 0)
(3 1.56549e-16 0)
(3 3.98248e-16 0)
(3 8.39571e-16 0)
(3 1.02921e-15 0)
(3 4.7112e-16 0)
(3 -1.96346e-16 0)
(3 8.0813e-16 0)
(3 1.66787e-15 0)
(3 1.4142e-15 0)
(3 8.93909e-16 0)
(3 2.04089e-16 0)
(3 2.23977e-16 0)
(3 4.3226e-16 0)
(3 9.52054e-16 0)
(3 2.3865e-17 0)
(3 -1.78675e-16 0)
(3 1.28862e-16 0)
(3 3.7953e-16 0)
(3 7.38207e-16 0)
(3 6.6246e-16 0)
(3 7.83627e-16 0)
(3 8.21634e-16 0)
(3 6.68863e-16 0)
(3 2.50603e-16 0)
(3 -4.19862e-16 0)
(3 -6.65687e-16 0)
(3 -6.29756e-16 0)
(3 -4.02242e-16 0)
(3 -2.41721e-16 0)
(3 -9.16364e-16 0)
(3 -3.9179e-16 0)
(3 -9.04035e-17 0)
(3 -3.44454e-16 0)
(3 -5.29439e-16 0)
(3 1.86124e-16 0)
(3 6.7464e-16 0)
(3 2.19397e-16 0)
(3 -4.45859e-16 0)
(3 2.26147e-16 0)
(3 2.05579e-16 0)
(3 -1.69656e-16 0)
(3 1.62514e-16 0)
(3 7.89952e-16 0)
(3 7.62976e-16 0)
(3 5.66989e-16 0)
(3 7.62898e-16 0)
(3 8.20308e-16 0)
(3 7.00937e-16 0)
(3 -6.49234e-17 0)
(3 -6.36768e-16 0)
(3 -1.23461e-15 0)
(3 -1.30924e-15 0)
(3 -6.51514e-16 0)
(3 -2.82855e-16 0)
(3 -6.2036e-16 0)
(3 -1.42304e-15 0)
(3 -1.13356e-15 0)
(3 -5.37041e-16 0)
(3 2.36389e-16 0)
(3 7.40471e-16 0)
(3 7.78517e-16 0)
(3 5.08289e-16 0)
(3 -1.83986e-18 0)
(3 1.50549e-16 0)
(3 1.58478e-16 0)
(3 -6.83042e-17 0)
(3 1.20554e-17 0)
(3 1.75386e-16 0)
(3 -1.56917e-16 0)
(3 -8.23015e-17 0)
(3 5.23707e-16 0)
(3 1.00979e-15 0)
(3 8.93358e-16 0)
(3 6.93908e-16 0)
(3 3.33309e-16 0)
(3 -4.88121e-17 0)
(3 2.4657e-16 0)
(3 1.1514e-15 0)
(3 6.71935e-16 0)
(3 -2.341e-16 0)
(3 9.19201e-17 0)
(3 -1.12537e-16 0)
(3 -6.11013e-16 0)
(3 -4.86344e-16 0)
(3 -2.94471e-16 0)
(3 -9.62343e-16 0)
(3 -1.83351e-16 0)
(3 -2.99307e-16 0)
(3 -3.39033e-16 0)
(3 -2.52213e-16 0)
(3 -3.91667e-16 0)
(3 -2.67902e-16 0)
(3 -1.71135e-16 0)
(3 -3.24363e-16 0)
(3 -1.35425e-16 0)
(3 5.69889e-17 0)
(3 6.4243e-16 0)
(3 7.76201e-16 0)
(3 9.89637e-16 0)
(3 5.23504e-16 0)
(3 5.05337e-16 0)
(3 -8.16499e-17 0)
(3 -5.22566e-16 0)
(3 -1.06451e-15 0)
(3 8.84771e-18 0)
(3 8.77332e-16 0)
(3 1.11613e-15 0)
(3 -1.01909e-15 0)
(3 -1.67431e-15 0)
(3 -2.51199e-15 0)
(3 2.77487e-17 0)
(3 8.39027e-17 0)
(3 -6.80927e-17 0)
(3 -3.33096e-16 0)
(3 -8.8645e-16 0)
(3 -6.87039e-16 0)
(3 -8.87871e-17 0)
(3 2.1917e-16 0)
(3 -1.86521e-16 0)
(3 -1.63852e-16 0)
(3 6.05779e-16 0)
(3 6.78192e-16 0)
(3 3.24003e-16 0)
(3 -3.46792e-16 0)
(3 -1.27977e-15 0)
(3 -2.2938e-15 0)
(3 -2.59958e-15 0)
(3 -2.53756e-15 0)
(3 -1.95253e-15 0)
(3 -1.4e-15 0)
(3 -1.1417e-15 0)
(3 -8.20939e-16 0)
(3 -1.13632e-15 0)
(3 -8.75724e-16 0)
(3 2.22011e-16 0)
(3 4.46538e-16 0)
(3 3.39471e-16 0)
(3 5.31957e-17 0)
(3 -6.14955e-16 0)
(3 -9.21102e-16 0)
(3 -4.4667e-16 0)
(3 2.29755e-17 0)
(3 6.87295e-17 0)
(3 2.78631e-16 0)
(3 2.48635e-16 0)
(3 1.58443e-16 0)
(3 -3.24326e-16 0)
(3 -4.91504e-16 0)
(3 -7.69081e-16 0)
(3 -5.32072e-16 0)
(3 -5.0841e-16 0)
(3 -7.11889e-16 0)
(3 -2.98364e-15 0)
(3 -3.24294e-15 0)
(3 -1.87111e-15 0)
(3 -1.6121e-16 0)
(3 2.05201e-16 0)
(3 -3.61081e-16 0)
(3 -2.1662e-17 0)
(3 2.19831e-17 0)
(3 -2.79807e-16 0)
(3 -1.29351e-16 0)
(3 3.8462e-16 0)
(3 -9.85597e-17 0)
(3 -5.78418e-16 0)
(3 -6.31055e-16 0)
(3 1.30412e-16 0)
(3 4.19533e-16 0)
(3 -1.25153e-16 0)
(3 -4.16815e-16 0)
(3 -1.63511e-16 0)
(3 1.26769e-16 0)
(3 -9.26154e-17 0)
(3 -1.34721e-16 0)
(3 -6.52247e-17 0)
(3 -4.10777e-16 0)
(3 -8.35772e-16 0)
(3 -8.48354e-16 0)
(3 3.79486e-16 0)
(3 4.69527e-16 0)
(3 5.39931e-16 0)
(3 1.25717e-16 0)
(3 -1.03511e-16 0)
(3 -1.13134e-16 0)
(3 6.53166e-17 0)
(3 1.82614e-16 0)
(3 6.98729e-16 0)
(3 6.08922e-16 0)
(3 2.15355e-16 0)
(3 -2.87872e-16 0)
(3 -1.33756e-16 0)
(3 1.99541e-16 0)
(3 1.85358e-16 0)
(3 2.06394e-16 0)
(3 5.31714e-16 0)
(3 4.26095e-16 0)
(3 1.17141e-16 0)
(3 -4.59295e-16 0)
(3 -7.75177e-16 0)
(3 -7.84997e-16 0)
(3 2.52551e-16 0)
(3 9.06546e-16 0)
(3 9.67535e-16 0)
(3 -4.71487e-16 0)
(3 -9.48766e-16 0)
(3 -3.39052e-16 0)
(3 -4.20638e-17 0)
(3 -1.1737e-16 0)
(3 2.54933e-16 0)
(3 7.23522e-16 0)
(3 6.63388e-16 0)
(3 5.13254e-16 0)
(3 3.43596e-16 0)
(3 -5.39736e-16 0)
(3 -1.11259e-15 0)
(3 -1.16821e-15 0)
(3 -4.79303e-16 0)
(3 4.84528e-16 0)
(3 8.66787e-16 0)
(3 8.10757e-16 0)
(3 7.86776e-16 0)
(3 5.43069e-16 0)
(3 2.11708e-16 0)
(3 1.09339e-16 0)
(3 2.58006e-16 0)
(3 5.36784e-16 0)
(3 6.46144e-16 0)
(3 7.14405e-16 0)
(3 4.72778e-16 0)
(3 2.61469e-16 0)
(3 -1.44994e-16 0)
(3 -2.44276e-16 0)
(3 -1.75389e-16 0)
(3 -1.8234e-16 0)
(3 -6.80323e-17 0)
(3 2.5267e-16 0)
(3 4.09162e-16 0)
(3 3.62564e-17 0)
(3 -1.22744e-15 0)
(3 -1.69273e-15 0)
(3 -1.39789e-15 0)
(3 -3.74305e-16 0)
(3 5.96741e-16 0)
(3 1.26503e-15 0)
(3 1.19542e-15 0)
(3 3.66439e-16 0)
(3 5.49139e-16 0)
(3 9.8952e-16 0)
(3 1.14404e-15 0)
(3 9.42745e-16 0)
(3 1.03572e-15 0)
(3 1.03754e-15 0)
(3 1.18532e-15 0)
(3 8.27576e-16 0)
(3 -1.82964e-18 0)
(3 -1.38838e-16 0)
(3 2.73887e-17 0)
(3 -2.20765e-16 0)
(3 -7.16215e-16 0)
(3 -2.20857e-16 0)
(3 4.71794e-16 0)
(3 -8.4849e-16 0)
(3 -2.8447e-15 0)
(3 -3.63255e-15 0)
(3 -3.43077e-15 0)
(3 -2.66189e-15 0)
(3 -1.05883e-15 0)
(3 -4.41879e-16 0)
(3 1.82716e-16 0)
(3 -1.76744e-18 0)
(3 3.39169e-16 0)
(3 5.46168e-16 0)
(3 5.2597e-16 0)
(3 9.51486e-16 0)
(3 1.47654e-15 0)
(3 1.14507e-15 0)
(3 6.5991e-16 0)
(3 3.28582e-16 0)
(3 8.18252e-17 0)
(3 -5.30221e-17 0)
(3 -3.42192e-16 0)
(3 -2.56613e-16 0)
(3 -2.56534e-16 0)
(3 -2.11048e-16 0)
(3 -3.52622e-17 0)
(3 -4.22296e-16 0)
(3 -9.2692e-16 0)
(3 -2.32475e-15 0)
(3 -4.66029e-15 0)
(3 -4.80283e-15 0)
(3 -3.99667e-15 0)
(3 -2.17306e-15 0)
(3 -1.0794e-15 0)
(3 -7.70534e-16 0)
(3 -1.10946e-15 0)
(3 -1.267e-15 0)
(3 -1.22262e-15 0)
(3 5.84383e-16 0)
(3 1.11491e-15 0)
(3 1.2035e-15 0)
(3 4.55079e-16 0)
(3 -6.59522e-16 0)
(3 1.62034e-16 0)
(3 1.01008e-16 0)
(3 -4.54981e-16 0)
(3 -7.43306e-16 0)
(3 -6.40559e-16 0)
(3 -4.22341e-16 0)
(3 -5.11941e-16 0)
(3 3.01507e-16 0)
(3 8.30722e-16 0)
(3 1.06892e-15 0)
(3 -7.19394e-16 0)
(3 -2.67915e-15 0)
(3 -2.18342e-15 0)
(3 -7.50288e-16 0)
(3 -6.53167e-16 0)
(3 -5.83869e-17 0)
(3 8.54394e-17 0)
(3 1.29447e-16 0)
(3 7.36568e-16 0)
(3 4.90985e-16 0)
(3 4.82506e-16 0)
(3 -3.24561e-16 0)
(3 -8.83308e-16 0)
(3 -1.21658e-15 0)
(3 2.31041e-16 0)
(3 2.19473e-16 0)
(3 8.69374e-17 0)
(3 2.49086e-16 0)
(3 2.68384e-16 0)
(3 1.76274e-16 0)
(3 -2.8493e-16 0)
(3 7.63645e-16 0)
(3 2.17549e-15 0)
(3 3.83654e-15 0)
(3 3.49015e-15 0)
(3 2.07947e-16 0)
(3 -8.86841e-16 0)
(3 -8.46979e-16 0)
(3 -5.02389e-16 0)
(3 1.64893e-16 0)
(3 1.49705e-15 0)
(3 1.93845e-15 0)
(3 1.45566e-15 0)
(3 6.95822e-16 0)
(3 -5.46571e-16 0)
(3 -6.29763e-16 0)
(3 1.96472e-17 0)
(3 4.17097e-16 0)
(3 -7.91454e-17 0)
(3 -7.21139e-17 0)
(3 1.80808e-16 0)
(3 4.37084e-16 0)
(3 8.47849e-16 0)
(3 1.01868e-16 0)
(3 1.64729e-16 0)
(3 1.26979e-15 0)
(3 2.3127e-15 0)
(3 3.60912e-15 0)
(3 3.15937e-15 0)
(3 2.04815e-15 0)
(3 2.29574e-16 0)
(3 -7.61291e-16 0)
(3 -1.2021e-15 0)
(3 -1.13055e-15 0)
(3 -4.77824e-16 0)
(3 -2.70002e-16 0)
(3 -4.21652e-16 0)
(3 -2.16211e-16 0)
(3 -4.03959e-16 0)
(3 -9.98061e-17 0)
(3 5.98325e-16 0)
(3 1.82415e-15 0)
(3 -1.3219e-16 0)
(3 -5.01997e-17 0)
(3 4.78847e-17 0)
(3 -1.6025e-16 0)
(3 2.0474e-17 0)
(3 -2.05359e-16 0)
(3 -3.47676e-16 0)
(3 -3.36146e-17 0)
(3 1.48541e-16 0)
(3 6.45462e-16 0)
(3 8.7936e-16 0)
(3 7.41539e-16 0)
(3 -1.52538e-16 0)
(3 -1.03594e-15 0)
(3 -1.54164e-15 0)
(3 -1.71637e-15 0)
(3 -1.66269e-15 0)
(3 -1.22343e-15 0)
(3 -9.34834e-16 0)
(3 -7.02542e-16 0)
(3 -1.93121e-16 0)
(3 2.1684e-16 0)
(3 5.49653e-16 0)
(3 7.59923e-16 0)
(2.93169 0.0332337 0)
(2.85042 0.0536636 0)
(2.75693 0.139724 0)
(2.66234 0.251159 0)
(2.5871 0.337123 0)
(2.49509 0.44831 0)
(2.42242 0.545901 0)
(2.35203 0.627994 0)
(2.31213 0.720897 0)
(2.25756 0.797089 0)
(2.24824 0.857349 0)
(2.28595 0.883205 0)
(2.32678 0.901079 0)
(2.33477 0.888107 0)
(2.34358 0.879738 0)
(2.34612 0.868016 0)
(2.34928 0.855499 0)
(2.34983 0.851128 0)
(2.34487 0.85063 0)
(2.33971 0.850545 0)
(2.33698 0.850298 0)
(2.33794 0.849258 0)
(2.33911 0.848757 0)
(2.33853 0.84902 0)
(2.99845 0.00163894 0)
(2.99054 0.011719 0)
(2.96225 0.0470753 0)
(2.89896 0.134349 0)
(2.80881 0.270061 0)
(2.67655 0.465535 0)
(2.52847 0.68701 0)
(2.39707 0.895584 0)
(2.21662 1.07529 0)
(2.16517 1.09887 0)
(2.13349 1.0423 0)
(2.20202 1.00124 0)
(2.2471 0.947349 0)
(2.29499 0.902072 0)
(2.33055 0.862318 0)
(2.34797 0.830911 0)
(2.35435 0.828402 0)
(2.36169 0.835762 0)
(2.35501 0.84452 0)
(2.34993 0.849102 0)
(2.34333 0.850644 0)
(2.34061 0.850932 0)
(2.34169 0.849542 0)
(2.34056 0.848938 0)
(3 5.39564e-07 0)
(3.00002 8.76685e-06 0)
(3 -7.912e-05 0)
(2.99982 0.000217681 0)
(2.99867 0.00181878 0)
(2.99111 0.0128597 0)
(2.96536 0.0542385 0)
(2.90272 0.16765 0)
(2.75623 0.428023 0)
(2.61449 0.687005 0)
(2.43586 0.855502 0)
(2.33538 0.930626 0)
(2.2937 0.913761 0)
(2.30521 0.896622 0)
(2.30876 0.898034 0)
(2.33769 0.875873 0)
(2.35745 0.848599 0)
(2.36407 0.848542 0)
(2.36112 0.848546 0)
(2.35716 0.848546 0)
(2.35099 0.849839 0)
(2.34786 0.851267 0)
(2.3477 0.850151 0)
(2.34587 0.849661 0)
(3 -2.92794e-10 0)
(3 -5.52218e-07 0)
(3 -1.43625e-06 0)
(3 -1.62891e-06 0)
(3.00001 -8.85576e-06 0)
(2.99999 2.3725e-05 0)
(3.00001 -2.04562e-05 0)
(2.99942 0.000822088 0)
(2.98735 0.0216663 0)
(2.92228 0.139144 0)
(2.70537 0.467152 0)
(2.45236 0.770612 0)
(2.365 0.870421 0)
(2.29628 0.94823 0)
(2.28025 0.948551 0)
(2.29878 0.923872 0)
(2.32787 0.88232 0)
(2.35052 0.851934 0)
(2.35936 0.842973 0)
(2.36177 0.837221 0)
(2.36209 0.839104 0)
(2.35958 0.842771 0)
(2.35645 0.846763 0)
(2.35236 0.847812 0)
(3 -8.46351e-11 0)
(3 1.79866e-09 0)
(3 -6.64633e-08 0)
(3 -1.54698e-07 0)
(3 -7.08621e-07 0)
(3 -6.60088e-07 0)
(3 -3.86653e-06 0)
(3 -5.34878e-06 0)
(3.00003 -7.48203e-05 0)
(2.99942 0.00073926 0)
(2.9832 0.0216818 0)
(2.87029 0.168093 0)
(2.69077 0.443898 0)
(2.35626 0.826896 0)
(2.33724 0.853823 0)
(2.30517 0.883654 0)
(2.3074 0.879472 0)
(2.31779 0.872213 0)
(2.34446 0.85724 0)
(2.35827 0.845425 0)
(2.36207 0.842241 0)
(2.36176 0.83991 0)
(2.36013 0.842365 0)
(2.35387 0.848667 0)
(3 -1.36072e-12 0)
(3 9.46357e-11 0)
(3 3.46108e-10 0)
(3 -1.39942e-09 0)
(3 -1.56165e-09 0)
(3 -3.33346e-08 0)
(3 -7.35959e-08 0)
(3 -3.23842e-07 0)
(3 -5.99596e-06 0)
(3 -5.64335e-06 0)
(3.00003 -6.30927e-05 0)
(2.99876 0.00171939 0)
(2.97516 0.0328773 0)
(2.7861 0.261006 0)
(2.63086 0.507389 0)
(2.3516 0.820143 0)
(2.25012 0.923955 0)
(2.27478 0.898082 0)
(2.30865 0.876288 0)
(2.32208 0.868686 0)
(2.33839 0.857543 0)
(2.34981 0.847924 0)
(2.35256 0.842536 0)
(2.35022 0.842278 0)
(3 1.0445e-14 0)
(3 -7.17248e-14 0)
(3 2.67986e-11 0)
(3 2.20209e-11 0)
(3 2.59977e-11 0)
(3 -9.32252e-11 0)
(3 -5.41268e-10 0)
(3 -8.44555e-10 0)
(3 -1.36052e-08 0)
(3 -2.97551e-07 0)
(3 -5.64987e-06 0)
(3.00001 -3.26947e-06 0)
(3 -4.50849e-05 0)
(2.99481 0.00748767 0)
(2.95525 0.065036 0)
(2.69994 0.378765 0)
(2.52226 0.620688 0)
(2.39055 0.782275 0)
(2.29447 0.86734 0)
(2.28841 0.873903 0)
(2.30867 0.863643 0)
(2.32658 0.845017 0)
(2.33559 0.844471 0)
(2.34024 0.84299 0)
(3 4.66327e-15 0)
(3 9.27871e-15 0)
(3 4.83877e-14 0)
(3 1.80384e-12 0)
(3 4.02688e-12 0)
(3 3.21147e-12 0)
(3 2.16572e-12 0)
(3 2.73409e-12 0)
(3 9.56868e-11 0)
(3 -1.12064e-09 0)
(3 -8.87615e-09 0)
(3 -1.2216e-06 0)
(3 -2.4321e-06 0)
(3.00001 -1.78383e-05 0)
(2.99972 0.000385177 0)
(2.98282 0.0235671 0)
(2.90471 0.144436 0)
(2.59215 0.537236 0)
(2.38321 0.774639 0)
(2.34624 0.808081 0)
(2.31889 0.839737 0)
(2.31839 0.84187 0)
(2.3253 0.84232 0)
(2.33243 0.839439 0)
(3 2.3759e-15 0)
(3 3.64285e-15 0)
(3 1.78223e-15 0)
(3 4.28188e-15 0)
(3 3.57672e-14 0)
(3 3.15251e-13 0)
(3 5.86244e-13 0)
(3 1.17518e-12 0)
(3 8.19121e-12 0)
(3 1.60368e-11 0)
(3 3.60301e-11 0)
(3 -1.85342e-08 0)
(3 -8.87549e-08 0)
(3 -3.36476e-06 0)
(3 -4.3888e-06 0)
(2.99999 2.41179e-05 0)
(2.99803 0.00349076 0)
(2.94083 0.0801324 0)
(2.79517 0.293578 0)
(2.49983 0.657345 0)
(2.31494 0.88366 0)
(2.30368 0.850857 0)
(2.32129 0.84338 0)
(2.32302 0.844153 0)
(3 1.39329e-15 0)
(3 -7.45093e-16 0)
(3 -1.02941e-15 0)
(3 1.4022e-17 0)
(3 -1.16841e-16 0)
(3 2.81168e-16 0)
(3 1.8612e-14 0)
(3 1.19017e-13 0)
(3 2.485e-13 0)
(3 3.41302e-12 0)
(3 4.2455e-12 0)
(3 9.53563e-11 0)
(3 -1.1389e-09 0)
(3 -3.56258e-08 0)
(3 -7.35186e-07 0)
(3 -6.77459e-07 0)
(3.00001 -1.21483e-05 0)
(2.9993 0.00116396 0)
(2.98767 0.0232503 0)
(2.8604 0.197127 0)
(2.59107 0.55147 0)
(2.46791 0.713267 0)
(2.34588 0.841552 0)
(2.31838 0.858412 0)
(3 -3.01458e-16 0)
(3 -3.70268e-16 0)
(3 5.47768e-16 0)
(3 1.67744e-15 0)
(3 1.49263e-15 0)
(3 -5.37794e-16 0)
(3 1.11917e-15 0)
(3 4.26084e-15 0)
(3 8.97547e-15 0)
(3 4.01109e-14 0)
(3 3.49582e-13 0)
(3 1.7276e-11 0)
(3 1.63801e-11 0)
(3 2.24556e-10 0)
(3 -7.97776e-09 0)
(3 -7.27919e-08 0)
(3 -1.82867e-06 0)
(3 -5.4196e-06 0)
(2.99995 6.98082e-05 0)
(2.99384 0.0102744 0)
(2.93092 0.103548 0)
(2.73788 0.40601 0)
(2.42768 0.782991 0)
(2.37932 0.801353 0)
(3 -5.99501e-16 0)
(3 -3.20164e-16 0)
(3 -3.99742e-16 0)
(3 -1.7744e-16 0)
(3 5.69387e-16 0)
(3 1.47502e-15 0)
(3 3.80149e-15 0)
(3 4.77327e-15 0)
(3 5.04442e-15 0)
(3 2.64594e-15 0)
(3 5.33365e-15 0)
(3 4.92772e-13 0)
(3 2.96281e-12 0)
(3 3.16674e-11 0)
(3 6.11279e-11 0)
(3 -1.75489e-09 0)
(3 -3.60674e-08 0)
(3 -1.45932e-06 0)
(3 -1.44739e-06 0)
(3 -7.09876e-07 0)
(2.99833 0.00354399 0)
(2.97173 0.0483066 0)
(2.74839 0.357824 0)
(2.55524 0.622236 0)
(3 7.8367e-16 0)
(3 1.5958e-15 0)
(3 2.36461e-15 0)
(3 3.24142e-15 0)
(3 4.1861e-15 0)
(3 4.64896e-15 0)
(3 4.22835e-15 0)
(3 2.96195e-15 0)
(3 1.66984e-15 0)
(3 2.2189e-15 0)
(3 2.2495e-15 0)
(3 1.48878e-15 0)
(3 3.92196e-14 0)
(3 1.08533e-12 0)
(3 1.47354e-11 0)
(3 8.82804e-12 0)
(3 -7.71377e-12 0)
(3 -3.0489e-08 0)
(3 -3.18018e-07 0)
(3 -5.62211e-07 0)
(3 -4.8057e-07 0)
(2.99943 0.00112475 0)
(2.97453 0.0405162 0)
(2.86011 0.232682 0)
(3 4.00493e-15 0)
(3 4.31385e-15 0)
(3 4.60463e-15 0)
(3 4.60027e-15 0)
(3 4.73865e-15 0)
(3 4.15624e-15 0)
(3 2.33956e-15 0)
(3 1.16398e-15 0)
(3 8.91281e-16 0)
(3 2.41871e-15 0)
(3 2.14612e-15 0)
(3 -2.56977e-16 0)
(3 -1.66799e-15 0)
(3 -3.9935e-15 0)
(3 6.86468e-13 0)
(3 1.94834e-12 0)
(3 1.31663e-11 0)
(3 3.09623e-11 0)
(3 -1.49308e-08 0)
(3 -1.50007e-07 0)
(3 -2.19703e-07 0)
(3 -2.01858e-06 0)
(2.99951 0.00107682 0)
(2.99407 0.0123838 0)
(3 4.39309e-15 0)
(3 3.25321e-15 0)
(3 1.97119e-15 0)
(3 1.08978e-15 0)
(3 1.45736e-15 0)
(3 2.73053e-15 0)
(3 3.62093e-15 0)
(3 3.2381e-15 0)
(3 3.12452e-15 0)
(3 3.46822e-15 0)
(3 2.23029e-15 0)
(3 5.19674e-16 0)
(3 -1.48673e-15 0)
(3 -4.16837e-15 0)
(3 9.39329e-16 0)
(3 1.25451e-13 0)
(3 2.4424e-12 0)
(3 5.30052e-12 0)
(3 -6.32657e-11 0)
(3 -1.30312e-08 0)
(3 -4.21621e-08 0)
(3 -4.66382e-07 0)
(3 8.62111e-06 0)
(3 -3.25046e-05 0)
(3 8.74574e-16 0)
(3 4.61714e-16 0)
(3 -1.64081e-16 0)
(3 6.83778e-16 0)
(3 8.43257e-16 0)
(3 2.41281e-15 0)
(3 3.3011e-15 0)
(3 2.77601e-15 0)
(3 1.88754e-15 0)
(3 1.33758e-15 0)
(3 -7.16033e-16 0)
(3 -9.97573e-16 0)
(3 -3.25933e-15 0)
(3 -4.63083e-15 0)
(3 -5.29322e-15 0)
(3 8.83342e-16 0)
(3 9.93022e-14 0)
(3 3.79119e-13 0)
(3 3.18058e-13 0)
(3 -1.53256e-10 0)
(3 -3.46571e-09 0)
(3 -1.53516e-07 0)
(3 -1.23013e-07 0)
(3 -1.8426e-06 0)
(3 -9.04355e-16 0)
(3 -5.15711e-17 0)
(3 7.0779e-16 0)
(3 1.86609e-15 0)
(3 1.64482e-15 0)
(3 1.2713e-15 0)
(3 7.91814e-16 0)
(3 7.8938e-16 0)
(3 -2.29574e-18 0)
(3 -1.62669e-15 0)
(3 -5.24102e-15 0)
(3 -5.17847e-15 0)
(3 -4.39427e-15 0)
(3 -2.4889e-15 0)
(3 1.57459e-15 0)
(3 -8.17185e-16 0)
(3 -4.34327e-14 0)
(3 -4.21342e-13 0)
(3 -2.2331e-13 0)
(3 1.29869e-10 0)
(3 2.63899e-09 0)
(3 1.95145e-07 0)
(3 6.56576e-08 0)
(3 1.80258e-06 0)
(3 1.1227e-16 0)
(3 9.90142e-16 0)
(3 1.72191e-15 0)
(3 8.38981e-16 0)
(3 -1.13516e-16 0)
(3 -1.24121e-15 0)
(3 -1.07824e-15 0)
(3 -1.65195e-15 0)
(3 -2.35611e-15 0)
(3 -2.47447e-15 0)
(3 -1.85488e-15 0)
(3 -2.21095e-15 0)
(3 -2.22199e-16 0)
(3 1.72539e-15 0)
(3 -1.50028e-16 0)
(3 -1.25911e-13 0)
(3 -2.38544e-12 0)
(3 -5.32765e-12 0)
(3 6.27956e-11 0)
(3 1.3165e-08 0)
(3 4.0855e-08 0)
(3 5.22907e-07 0)
(3 -8.59322e-06 0)
(3 3.25194e-05 0)
(3 -1.06262e-15 0)
(3 4.21439e-16 0)
(3 -6.86483e-16 0)
(3 -2.30396e-15 0)
(3 -2.82319e-15 0)
(3 -2.62268e-15 0)
(3 -2.0746e-15 0)
(3 -1.94484e-15 0)
(3 -1.33292e-15 0)
(3 -4.02271e-17 0)
(3 1.04887e-15 0)
(3 1.65097e-15 0)
(3 3.12589e-15 0)
(3 2.87204e-15 0)
(3 -6.80297e-13 0)
(3 -1.94696e-12 0)
(3 -1.31589e-11 0)
(3 -3.0907e-11 0)
(3 1.49248e-08 0)
(3 1.50118e-07 0)
(3 2.19679e-07 0)
(3 1.9819e-06 0)
(2.99951 -0.00107681 0)
(2.99407 -0.0123839 0)
(3 -1.30239e-15 0)
(3 -8.13548e-16 0)
(3 -7.76011e-16 0)
(3 -2.748e-16 0)
(3 -2.91322e-16 0)
(3 -9.72246e-16 0)
(3 -2.3319e-15 0)
(3 -1.96714e-15 0)
(3 -1.70963e-15 0)
(3 7.38459e-16 0)
(3 2.56391e-15 0)
(3 2.64632e-15 0)
(3 -3.68361e-14 0)
(3 -1.08261e-12 0)
(3 -1.47295e-11 0)
(3 -8.82423e-12 0)
(3 7.70864e-12 0)
(3 3.04904e-08 0)
(3 3.18009e-07 0)
(3 5.62211e-07 0)
(3 4.80544e-07 0)
(2.99943 -0.00112475 0)
(2.97453 -0.0405162 0)
(2.86011 -0.232683 0)
(3 5.26401e-17 0)
(3 1.18341e-15 0)
(3 2.57348e-15 0)
(3 2.34537e-15 0)
(3 6.63419e-16 0)
(3 -3.04895e-16 0)
(3 -2.66812e-15 0)
(3 -2.80656e-15 0)
(3 -2.13386e-15 0)
(3 3.44546e-16 0)
(3 1.53742e-15 0)
(3 -4.82151e-13 0)
(3 -2.95347e-12 0)
(3 -3.16575e-11 0)
(3 -6.11265e-11 0)
(3 1.7549e-09 0)
(3 3.60674e-08 0)
(3 1.45932e-06 0)
(3 1.44739e-06 0)
(3 7.09753e-07 0)
(2.99833 -0.00354399 0)
(2.97173 -0.0483066 0)
(2.74839 -0.357824 0)
(2.55524 -0.622236 0)
(3 -1.63604e-16 0)
(3 1.75567e-15 0)
(3 3.61357e-15 0)
(3 1.87909e-15 0)
(3 1.10272e-16 0)
(3 -3.32192e-16 0)
(3 -1.57263e-15 0)
(3 -6.95545e-15 0)
(3 -4.63229e-15 0)
(3 -3.38831e-14 0)
(3 -3.44793e-13 0)
(3 -1.72753e-11 0)
(3 -1.63805e-11 0)
(3 -2.24556e-10 0)
(3 7.97776e-09 0)
(3 7.2792e-08 0)
(3 1.82867e-06 0)
(3 5.41959e-06 0)
(2.99995 -6.98081e-05 0)
(2.99384 -0.0102744 0)
(2.93092 -0.103548 0)
(2.73788 -0.40601 0)
(2.42768 -0.782991 0)
(2.37932 -0.801353 0)
(3 -2.27384e-16 0)
(3 -5.0785e-17 0)
(3 3.04578e-16 0)
(3 8.68576e-16 0)
(3 1.29877e-15 0)
(3 1.67301e-16 0)
(3 -1.7859e-14 0)
(3 -1.1777e-13 0)
(3 -2.45666e-13 0)
(3 -3.40815e-12 0)
(3 -4.23816e-12 0)
(3 -9.53566e-11 0)
(3 1.1389e-09 0)
(3 3.56258e-08 0)
(3 7.35186e-07 0)
(3 6.77459e-07 0)
(3.00001 1.21483e-05 0)
(2.9993 -0.00116396 0)
(2.98767 -0.0232503 0)
(2.8604 -0.197127 0)
(2.59107 -0.55147 0)
(2.46791 -0.713267 0)
(2.34588 -0.841552 0)
(2.31838 -0.858412 0)
(3 -7.10355e-16 0)
(3 -3.91972e-15 0)
(3 -2.62591e-15 0)
(3 -5.21936e-15 0)
(3 -3.82094e-14 0)
(3 -3.16452e-13 0)
(3 -5.82033e-13 0)
(3 -1.16865e-12 0)
(3 -8.18157e-12 0)
(3 -1.60321e-11 0)
(3 -3.60272e-11 0)
(3 1.85342e-08 0)
(3 8.87549e-08 0)
(3 3.36475e-06 0)
(3 4.3888e-06 0)
(2.99999 -2.41179e-05 0)
(2.99803 -0.00349076 0)
(2.94083 -0.0801324 0)
(2.79517 -0.293578 0)
(2.49983 -0.657345 0)
(2.31494 -0.88366 0)
(2.30368 -0.850857 0)
(2.32129 -0.84338 0)
(2.32302 -0.844153 0)
(3 -2.50404e-15 0)
(3 -8.37224e-15 0)
(3 -4.66213e-14 0)
(3 -1.80316e-12 0)
(3 -4.02428e-12 0)
(3 -3.208e-12 0)
(3 -2.16311e-12 0)
(3 -2.73251e-12 0)
(3 -9.56859e-11 0)
(3 1.12064e-09 0)
(3 8.87615e-09 0)
(3 1.2216e-06 0)
(3 2.4321e-06 0)
(3.00001 1.78383e-05 0)
(2.99972 -0.000385177 0)
(2.98282 -0.0235671 0)
(2.90471 -0.144436 0)
(2.59215 -0.537236 0)
(2.38321 -0.774639 0)
(2.34624 -0.808081 0)
(2.31889 -0.839737 0)
(2.31839 -0.84187 0)
(2.3253 -0.84232 0)
(2.33243 -0.839439 0)
(3 -7.61483e-15 0)
(3 7.45292e-14 0)
(3 -2.67969e-11 0)
(3 -2.20205e-11 0)
(3 -2.59941e-11 0)
(3 9.32274e-11 0)
(3 5.41269e-10 0)
(3 8.44554e-10 0)
(3 1.36052e-08 0)
(3 2.97551e-07 0)
(3 5.64987e-06 0)
(3.00001 3.26947e-06 0)
(3 4.50849e-05 0)
(2.99481 -0.00748767 0)
(2.95525 -0.065036 0)
(2.69994 -0.378765 0)
(2.52226 -0.620688 0)
(2.39055 -0.782275 0)
(2.29447 -0.86734 0)
(2.28841 -0.873903 0)
(2.30867 -0.863643 0)
(2.32658 -0.845017 0)
(2.33559 -0.844471 0)
(2.34024 -0.84299 0)
(3 1.36266e-12 0)
(3 -9.46358e-11 0)
(3 -3.46109e-10 0)
(3 1.39942e-09 0)
(3 1.56165e-09 0)
(3 3.33346e-08 0)
(3 7.35958e-08 0)
(3 3.23842e-07 0)
(3 5.99596e-06 0)
(3 5.64335e-06 0)
(3.00003 6.30927e-05 0)
(2.99876 -0.00171939 0)
(2.97516 -0.0328773 0)
(2.7861 -0.261006 0)
(2.63086 -0.507389 0)
(2.3516 -0.820143 0)
(2.25012 -0.923955 0)
(2.27478 -0.898082 0)
(2.30865 -0.876288 0)
(2.32208 -0.868686 0)
(2.33839 -0.857543 0)
(2.34981 -0.847924 0)
(2.35256 -0.842536 0)
(2.35022 -0.842278 0)
(3 8.46333e-11 0)
(3 -1.79866e-09 0)
(3 6.64633e-08 0)
(3 1.54698e-07 0)
(3 7.08621e-07 0)
(3 6.60088e-07 0)
(3 3.86653e-06 0)
(3 5.34878e-06 0)
(3.00003 7.48203e-05 0)
(2.99942 -0.00073926 0)
(2.9832 -0.0216818 0)
(2.87029 -0.168093 0)
(2.69077 -0.443898 0)
(2.35626 -0.826896 0)
(2.33724 -0.853823 0)
(2.30517 -0.883654 0)
(2.3074 -0.879472 0)
(2.31779 -0.872213 0)
(2.34446 -0.85724 0)
(2.35827 -0.845425 0)
(2.36207 -0.842241 0)
(2.36176 -0.83991 0)
(2.36013 -0.842365 0)
(2.35387 -0.848667 0)
(3 2.92791e-10 0)
(3 5.52218e-07 0)
(3 1.43625e-06 0)
(3 1.62891e-06 0)
(3.00001 8.85576e-06 0)
(2.99999 -2.3725e-05 0)
(3.00001 2.04562e-05 0)
(2.99942 -0.000822087 0)
(2.98735 -0.0216663 0)
(2.92228 -0.139144 0)
(2.70537 -0.467152 0)
(2.45236 -0.770612 0)
(2.365 -0.870421 0)
(2.29628 -0.94823 0)
(2.28025 -0.948551 0)
(2.29878 -0.923872 0)
(2.32787 -0.88232 0)
(2.35052 -0.851934 0)
(2.35936 -0.842973 0)
(2.36177 -0.837221 0)
(2.36209 -0.839104 0)
(2.35958 -0.842771 0)
(2.35645 -0.846763 0)
(2.35236 -0.847812 0)
(3 -5.39564e-07 0)
(3.00002 -8.76679e-06 0)
(3 7.91199e-05 0)
(2.99982 -0.000217682 0)
(2.99867 -0.00181878 0)
(2.99111 -0.0128597 0)
(2.96536 -0.0542385 0)
(2.90272 -0.16765 0)
(2.75623 -0.428023 0)
(2.61449 -0.687005 0)
(2.43586 -0.855502 0)
(2.33538 -0.930626 0)
(2.2937 -0.913761 0)
(2.30521 -0.896622 0)
(2.30876 -0.898034 0)
(2.33769 -0.875873 0)
(2.35745 -0.848599 0)
(2.36407 -0.848542 0)
(2.36112 -0.848546 0)
(2.35716 -0.848546 0)
(2.35099 -0.849839 0)
(2.34786 -0.851267 0)
(2.3477 -0.850151 0)
(2.34587 -0.849661 0)
(2.99845 -0.00163894 0)
(2.99054 -0.011719 0)
(2.96225 -0.0470753 0)
(2.89896 -0.134349 0)
(2.80881 -0.270061 0)
(2.67655 -0.465535 0)
(2.52847 -0.68701 0)
(2.39707 -0.895584 0)
(2.21662 -1.07529 0)
(2.16517 -1.09887 0)
(2.13349 -1.0423 0)
(2.20202 -1.00124 0)
(2.2471 -0.947349 0)
(2.29499 -0.902072 0)
(2.33055 -0.862318 0)
(2.34797 -0.830911 0)
(2.35435 -0.828402 0)
(2.36169 -0.835762 0)
(2.35501 -0.84452 0)
(2.34993 -0.849102 0)
(2.34333 -0.850644 0)
(2.34061 -0.850932 0)
(2.34169 -0.849542 0)
(2.34056 -0.848938 0)
(2.93169 -0.0332337 0)
(2.85042 -0.0536636 0)
(2.75693 -0.139724 0)
(2.66234 -0.251159 0)
(2.5871 -0.337123 0)
(2.49509 -0.44831 0)
(2.42242 -0.545901 0)
(2.35203 -0.627994 0)
(2.31213 -0.720897 0)
(2.25756 -0.797089 0)
(2.24824 -0.857349 0)
(2.28595 -0.883205 0)
(2.32678 -0.901079 0)
(2.33477 -0.888107 0)
(2.34358 -0.879738 0)
(2.34612 -0.868016 0)
(2.34928 -0.855499 0)
(2.34983 -0.851128 0)
(2.34487 -0.85063 0)
(2.33971 -0.850545 0)
(2.33698 -0.850298 0)
(2.33794 -0.849258 0)
(2.33911 -0.848757 0)