/*--------------------------------*- C++ -*----------------------------------*\
  =========                 |
  \\      /  F ield         | OpenFOAM: The Open Source CFD Toolbox
   \\    /   O peration     | Website:  https://openfoam.org
    \\  /    A nd           | Version:  7
     \\/     M anipulation  |
\*---------------------------------------------------------------------------*/
FoamFile
{
    version     2.0;
    format      ascii;
    class       volScalarField;
    location    "2.7";
    object      p;
}
// * * * * * * * * * * * * * * * * * * * * * * * * * * * * * * * * * * * * * //

dimensions      [1 -1 -2 0 0 0 0];

internalField   nonuniform List<scalar> 
18432
(
1
1
1
1
1
1
1
1
1
1
1
1
1
1
1
1
1
1
1
1
1
1
1
1
1
1
1
1
1
1
1
1
1
1
1
1
1
1
1
1
1
1
1
1
1
1
1
1
1
1
1
1
1
1
1
1
1
1
1
1
1
1
1
1
1
1
1
1
1
1
1
1
1
1
1
1
1
1
1
1
1
1
1
1
1
1
1
1
1
1
1
1
1
1
1
1
1
1
1
1
1
1
1
1
1
1
1
1
1
1
1
1
1
1
1
1
1
1
1
1
1
1
1
1
1
1
1
1
1
1
1
1
1
1
1
1
1
1
1
1
1
1
1
1
1
1
1
1
1
1
1
1
1
1
1
1
1
1
1
1
1
1
1
1
1
1
1
1
1
1
1
1
1
1
1
1
1
1
1
1
1
1
1
1
1
1
1
1
1
1
1
1
1
1
1
1
1
1
1
1
1
1
1
1
1
1
1
1
1
1
1
1
1
1
1
1
1
1
1
1
1
1
1
1
1
1
1
1
1
1
1
1
1
1
1
1
1
1
1
1
1
1
1
1
1
1
1
1
1
1
1
1
1
1
1
1
1
1
1
1
1
1
1
1
1
1
1
1
1
1
1
1
1
1
1
1
1
1
1
1
1
1
1
1
1
1
1
1
1
1
1
1
1
1
1
1
1
1
1
1
1
1
1
1
1
1
1
1
1
1
1
1
1
1
1
1
1
1
1
1
1
1
1
1
1
1
1
1
1
1
1
1
1
1
1
1
1
1
1
1
1
1
1
1
1
1
1
1
1
1
1
1
1
1
1
1
1
1
1
1
1
1
1
1
1
1
1
1
1
1
1
1
1
1
1
1
1
1
1
1
1
1
1
1
1
1
1
1
1
1
1
1
1
1
1
1
1
1
1
1
1
1
1
1
1
1
1
1
1
1
1
1
1
1
1
1
1
1
1
1
1
1
1
1
1
1
1
1
1
1
1
1
1
1
1
1
1
1
1
1
1
1
1
1
1
1
1
1
1
1
1
1
1
1
1
1
1
1
1
1
1
1
1
1
1
1
1
1
1
1
1
1
1
1
1
1
1
1
1
1
1
1
1
1
1
1
1
1
1
1
1
1
1
1
1
1
1
1
1
1
1
1
1
1
1
1
1
1
1
1
1
1
1
1
1
1
1
1
1
1
1
1
1
1
1
1
1
1
1
1
1
1
1
1
1
1
1
1
1
1
1
1
1
1
1
1
1
1
1
1
1
1
1
1
1
1
1
1
1
1
1
1
1
1
1
1
1
1
1
1
1
1
1
1
1
1
1
1
1
1
1
1
1
1
1
1
1
1
1
1
1
1
1
1
1
1
1
1
1
1
1
1
1
1
1
1
1
1
1
1
1
1
1
1
1
1
1
1
1
1
1
1
1
1
1
1
1
1
1
1
1
1
1
1
1
1
1
1
1
1
1
1
1
1
1
1
1
1
1
1
1
1
1
1
1
1
1
1
1
1
1
1
1
1
1
1
1
1
1
1
1
1
1
1
1
1
1
1
1
1
1
1
1
1
1
1
1
1
1
1
1
1
1
1
1
1
1
1
1
1
1
1
1
1
1
1
1
1
1
1
1
1
1
1
1
1
1
1
1
1
1
1
1
1
1
1
1
1
1
1
1
1
1
1
1
1
1
1
1
1
1
1
1
1
1
1
1
1
1
1
1
1
1
1
1
1
1
1
1
1
1
1
1
1
1
1
1
1
1
1
1
1
1
1
1
1
1
1
1
1
1
1
1
1
1
1
1
1
1
1
1
1
1
1
1
1
1
1
1
1
1
1
1
1
1
1
1
1
1
1
1
1
1
1
1
1
1
1
1
1
1
1
1
1
1
1
1
1
1
1
1
1
1
1
1
1
1
1
1
1
1
1
1
1
1
1
1
1
1
1
1
1
1
1
1
1
1
1
1
1
1
1
1
1
1
1
1
1
1
1
1
1
1
1
1
1
1
1
1
1
1
1
1
1
1
1
1
1
1
1
1
1
1
1
1
1
1
1
1
1
1
1
1
1
1
1
1
1
1
1
1
1
1
1
1
1
1
1
1
1
1
1
1
1
1
1
1
1
1
1
1
1
1
1
1
1
1
1
1
1
1
1
1
1
1
1
1
1
1
1
1
1
1
1
1
1
1
1
1
1
1
1
1
1
1
1
1
1
1
1
1
1
1
1
1
1
1
1
1
1
1
1
1
1
1
1
1
1
1
1
1
1
1
1
1
1
1
1
1
1
1
1
1
1
1
1
1
1
1
1
1
1
1
1
1
1
1
1
1
1
1
1
1
1
1
1
1
1
1
1
1
1
1
1
1
1
1
1
1
1
1
1
1
1
1
1
1
1
1
1
1
1
1
1
1
1
1
1
1
1
1
1
1
1
1
1
1
1
1
1
1
1
1
1
1
1
1
1
1
1
1
1
1
1
1
1
1
1
1
1
1
1
1
1
1
1
1
1
1
1
1
1
1
1
1
1
1
1
1
1
1
1
1
1
1
1
1
1
1
1
1
1
1
1
1
1
1
1
1
1
1
1
1
1
1
1
1
1
1
1
1
1
1
1
1
1
1
1
1
1
1
1
1
1
1
1
1
1
1
1
1
1
1
1
1
1
1
1
1
1
1
1
1
1
1
1
1
1
1
1
1
1
1
1
1
1
1
1
1
1
1
1
1
1
1
1
1
1
1
1
1
1
1
1
1
1
1
1
1
1
1
1
1
1
1
1
1
1
1
1
1
1
1
1
1
1
1
1
1
1
1
1
1
1
1
1
1
1
1
1
1
1
1
1
1
1
1
1
1
1
1
1
1
1
1
1
1
1
1
1
1
1
1
1
1
1
1
1
1
1
1
1
1
1
1
1
1
1
1
1
1
1
1
1
1
1
1
1
1
1
1
1
1
1
1
1
1
1
1
1
1
1
1
1
1
1
1
1
1
1
1
1
1
1
1
1
1
1
1
1
1
1
1
1
1
1
1
1
1
1
1
1
1
1
1
1
1
1
1
1
1
1
1
1
1
1
1
1
1
1
1
1
1
1
1
1
1
1
1
1
1
1
1
1
1
1
1
1
1
1
1
1
1
1
1
1
1
1
1
1
1
1
1
1
1
1
1
1
1
1
1
1
1
1
1
1
1
1
1
1
1
1
1
1
1
1
1
1
1
1
1
1
1
1
1
1
1
1
1
1
1
1
1
1
1
1
1
1
1
1
1
1
1
1
1
1
1
1
1
1
1
1
1
1
1
1
1
1
1
1
1
1
1
1
1
1
1
1
1
1
1
1
1
1
1
1
1
1
1
1
1
1
1
1
1
1
1
1
1
1
1
1
1
1
1
1
1
1
1
1
1
1
1
1
1
1
1
1
1
1
1
1
1
1
1
1
1
1
1
1
1
1
1
1
1
1
1
1
1
1
1
1
1
1
1
1
1
1
1
1
1
1
1
1
1
1
1
1
1
1
1
1
1
1
1
1
1
1
1
1
1
1
1
1
1
1
1
1
1
1
1
1
1
1
1
1
1
1
1
1
1
1
1
1
1
1
1
1
1
1
1
1
1
1
1
1
1
1
1
1
1
1
1
1
1
1
1
1
1
1
1
1
1
1
1
1
1
1
1
1
1
1
1
1
1
1
1
1
1
1
1
1
1
1
1
1
1
1
1
1
1
1
1
1
1
1
1
1
1
1
1
1
1
1
1
1
1
1
1
1
1
1
1
1
1
1
1
1
1
1
1
1
1
1
1
1
1
1
1
1
1
1
1
1
1
1
1
1
1
1
1
1
1
1
1
1
1
1
1
1
1
1
1
1
1
1
1
1
1
1
1
1
1
1
1
1
1
1
1
1
1
1
1
1
1
1
1
1
1
1
1
1
1
1
1
1
1
1
1
1
1
1
1
1
1
1
1
1
1
1
1
1
1
1
1
1
1
1
1
1
1
1
1
1
1
1
1
1
1
1
1
1
1
1
1
1
1
1
1
1
1
1
1
1
1
1
1
1
1
1
1
1
1
1
1
1
1
1
1
1
1
1
1
1
1
1
1
1
1
1
1
1
1
1
1
1
1
1
1
1
1
1
1
1
1
1
1
1
1
1
1
1
1
1
1
1
1
1
1
1
1
1
1
1
1
1
1
1
1
1
1
1
1
1
1
1
1
1
1
1
1
1
1
1
1
1
1
1
1
1
1
1
1
1
1
1
1
1
1
1
1
1
1
1
1
1
1
1
1
1
1
1
1
1
1
1
1
1
1
1
1
1
1
1
1
1
1
1
1
1
1
1
1
1
1
1
1
1
1
1
1
1
1
1
1
1
1
1
1
1
1
1
1
1
1
1
1
1
1
1
1
1
1
1
1
1
1
1
1
1
1
1
1
1
1
1
1
1
1
1
1
1
1
1
1
1
1
1
1
1
1
1
1
1
1
1
1
1
1
1
1
1
1
1
1
1
1
1
1
1
1
1
1
1
1
1
1
1
1
1
1
1
1
1
1
1
1
1
1
1
1
1
1
1
1
1
1
1
1
1
1
1
1
1
1
1
1
1
1
1
1
1
1
1
1
1
1
1
1
1
1
1
1
1
1
1
1
1
1
1
1
1
1
1
1
1
1
1
1
1
1
1
1
1
1
1
1
1
1
1
1
1
1
1
1
1
1
1
1
1
1
1
1
1
1
1
1
1
1
1
1
1
1
1
1
1
1
1
1
1
1
1
1
1
1
1
1
1
1
1
1
1
1
1
1
1
1
1
1
1
1
1
1
1
1
1
1
1
1
1
1
1
1
1
1
1
1
1
1
1
1
1
1
1
1
1
1
1
1
1
1
1
1
1
1
1
1
1
1
1
1
1
1
1
1
1
1
1
1
1
1
1
1
1
1
1
1
1
1
1
1
1
1
1
1
1
1
1
1
1
1
1
1
1
1
1
1
1
1
1
1
1
1
1
1
1
1
1
1
1
1
1
1
1
1
1
1
1
1
1
1
1
1
1
1
1
1
1
1
1
1
1
1
1
1
1
1
1
1
1
1
1
1
1
1
1
1
1
1
1
1
1
1
1
1
1
1
1
1
1
1
1
1
1
1
1
1
1
1
1
1
1
1
1
1
1
1
1
1
1
1
1
1
1
1
1
1
1
1
1
1
1
1
1
1
1
1
1
1
1
1
1
1
1
1
1
1
1
1
1
1
1
1
1
1
1
1
1
1
1
1
1
1
1
1
1
1
1
1
1
1
1
1
1
1
1
1
1
1
1
1
1
1
1
1
1
1
1
1
1
1
1
1
1
1
1
1
1
1
1
1
1
1
1
1
1
1
1
1
1
1
1
1
1
1
1
1
1
1
1
1
1
1
1
1
1
1
1
1
1
1
1
1
1
1
1
1
1
1
1
1
1
1
1
1
1
1
1
1
1
1
1
1
1
1
1
1
1
1
1
1
1
1
1
1
1
1
1
1
1
1
1
1
1
1
1
1
1
1
1
1
1
1
1
1
1
1
1
1
1
1
1
1
1
1
1
1
1
1
1
1
1
1
1
1
1
1
1
1
1
1
1
1
1
1
1
1
1
1
1
1
1
1
1
1
1
1
1
1
1
1
1
1
1
1
1
1
1
1
1
1
1
1
1
1
1
1
1
1
1
1
1
1
1
1
1
1
1
1
1
1
1
1
1
1
1
1
1
1
1
1
1
1
1
1
1
1
1
1
1
1
1
1
1
1
1
1
1
1
1
1
1
1
1
1
1
1
1
1
1
1
1
1
1
1
1
1
1
1
1
1
1
1
1
1
1
1
1
1
1
1
1
1
1
1
1
1
1
1
1
1
1
1
1
1
1
1
1
1
1
1
1
1
1
1
1
1
1
1
1
1
1
1
1
1
1
1
1
1
1
1
1
1
1
1
1
1
1
1
1
1
1
1
1
1
1
1
1
1
1
1
1
1
1
1
1
1
1
1
1
1
1
1
1
1
1
1
1
1
1
1
1
1
1
1
1
1
1
1
1
1
1
1
1
1
1
1
1
1
1
1
1
1
1
1
1
1
1
1
1
1
1
1
1
1
1
1
1
1
1
1
1
1
1
1
1
1
1
1
1
1
1
1
1
1
1
1
1
1
1
1
1
1
1
1
1
1
1
1
1
1
1
1
1
1
1
1
1
1
1
1
1
1
1
1
1
1
1
1
1
1
1
1
1
1
1
1
1
1
1
1
1
1
1
1
1
1
1
1
1
1
1
1
1
1
1
1
1
1
1
1
1
1
1
1
1
1
1
1
1
1
1
1
1
1
1
1
1
1
1
1
1
1
1
1
1
1
1
1
1
1
1
1
1
1
1
1
1
1
1
1
1
1
1
1
1
1
1
1
1
1
1
1
1
1
1
1
1
1
1
1
1
1
1
1
1
1
1
1
1
1
1
1
1
1
1
1
1
1
1
1
1
1
1
1
1
1
1
1
1
1
1
1
1
1
1
1
1
1
1
1
1
1
1
1
1
1
1
1
1
1
1
1
1
1
1
1
1
1
1
1
1
1
1
1
1
1
1
1
1
1
1
1
1
1
1
1
1
1
1
1
1
1
1
1
1
1
1
1
1
1
1
1
1
1
1
1
1
1
1
1
1
1
1
1
1
1
1
1
1
1
1
1
1
1
1
1
1
1
1
1
1
1
1
1
1
1
1
1
1
1
1
1
1
1
1
1
1
1
1
1
1
1
1
1
1
1
1
1
1
1
1
1
1
1
1
1
1
1
1
1
1
1
1
1
1
1
1
1
1
1
1
1
1
1
1
1
1
1
1
1
1
1
1
1
1
1
1
1
1
1
1
1
1
1
1
1
1
1
1
1
1
1
1
1
1
1
1
1
1
1
1
1
1
1
1
1
1
1
1
1
1
1
1
1
1
1
1
1
1
1
1
1
1
1
1
1
1
1
1
1
1
1.29114
1.74215
2.33859
2.91601
3.51069
4.20502
4.66843
5.07945
5.33641
5.25781
4.95969
4.48645
4.05424
3.76534
3.66441
3.58756
3.56565
3.59294
3.62869
3.65898
3.68819
3.70932
3.72868
3.74679
3.75334
3.75569
3.75642
3.76025
3.76236
3.76089
3.75882
3.76117
3.77124
3.78643
3.7961
3.79694
3.79508
3.78944
3.78037
3.77184
3.76918
3.76914
3.76984
3.77144
3.77257
3.77294
3.77231
3.76851
1.00244
1.01753
1.06398
1.20505
1.41462
1.75869
2.22488
2.75436
3.32346
3.71351
3.9265
4.03599
4.02169
3.94906
3.85046
3.77989
3.72442
3.71093
3.67532
3.66451
3.67397
3.69556
3.71908
3.74529
3.76108
3.76685
3.76883
3.76467
3.76342
3.76341
3.76345
3.7658
3.76958
3.77337
3.77702
3.77792
3.77612
3.77247
3.76852
3.76731
3.76764
3.7686
3.77125
3.77635
3.77893
3.77916
3.77807
3.77543
1
0.999982
1.00001
1.00009
1.00148
1.01271
1.06421
1.21873
1.61089
2.33432
3.34335
3.91484
4.29117
4.32045
4.2588
4.12994
3.96463
3.7581
3.65712
3.64952
3.66137
3.67914
3.70205
3.73529
3.76156
3.77091
3.77499
3.7765
3.77561
3.77839
3.78126
3.78351
3.78339
3.78072
3.77696
3.7726
3.76734
3.76261
3.75986
3.75957
3.76028
3.76232
3.76754
3.77523
3.77999
3.78096
3.78068
3.78148
1
1
1
1
0.999999
0.999983
1.00006
1.00008
1.00586
1.07075
1.41024
2.14968
3.11791
3.93743
4.02605
4.02049
3.98863
3.88947
3.80311
3.74633
3.72198
3.69691
3.68367
3.69104
3.70615
3.72302
3.74152
3.75423
3.76383
3.77047
3.77659
3.78124
3.78273
3.78239
3.78087
3.77676
3.77191
3.76865
3.7665
3.76583
3.76685
3.76957
3.77411
3.7788
3.78052
3.77893
3.77665
3.77532
1
1
1
1
1
1
1
1
1
0.999931
1.00169
1.04842
1.28187
2.00981
2.84645
3.65113
4.04218
4.05527
3.9959
3.92976
3.82391
3.74152
3.70788
3.68613
3.68088
3.69109
3.70352
3.71641
3.73061
3.74193
3.75026
3.75644
3.76491
3.77214
3.7736
3.77376
3.77362
3.77295
3.77231
3.7727
3.7751
3.7794
3.78379
3.78606
3.78521
3.78267
3.77802
3.77462
1
1
1
1
1
1
1
1
1
0.999997
0.999998
0.999955
1.00069
1.03001
1.23248
1.78137
2.71978
3.37817
3.90445
3.93532
3.91566
3.84331
3.80223
3.77046
3.74107
3.71191
3.70015
3.70001
3.70843
3.73115
3.74983
3.76233
3.77147
3.77515
3.77557
3.77547
3.77533
3.77372
3.77184
3.77156
3.77333
3.7772
3.77971
3.77849
3.77539
3.77148
3.76568
3.76419
1
1
1
1
1
1
1
1
1
1
1
0.999997
0.999998
0.999963
1.00061
1.01577
1.20118
1.67727
2.57543
3.22843
3.63981
3.85523
3.85432
3.84596
3.80194
3.76213
3.74104
3.72625
3.72335
3.73027
3.74662
3.76924
3.78118
3.78208
3.78009
3.77873
3.7774
3.77437
3.77055
3.76882
3.76849
3.77229
3.77453
3.77321
3.77034
3.76751
3.76431
3.76513
1
1
1
1
1
1
1
1
1
1
1
1
1
0.999997
0.999998
0.999974
1.00067
1.01369
1.13802
1.62511
2.34478
3.24417
3.52165
3.6543
3.69592
3.72869
3.73988
3.7231
3.71687
3.72391
3.73579
3.74834
3.75997
3.77177
3.77414
3.77236
3.76944
3.76744
3.76678
3.7673
3.77232
3.77773
3.77873
3.77814
3.77667
3.7745
3.77248
3.77268
1
1
1
1
1
1
1
1
1
1
1
1
1
1
1
0.999998
0.999998
0.999982
1.0003
1.01447
1.10683
1.54944
2.28699
3.10052
3.57085
3.638
3.70639
3.7004
3.69282
3.7031
3.71008
3.71611
3.72565
3.73839
3.7484
3.75575
3.75956
3.7629
3.76617
3.76936
3.77486
3.7785
3.77957
3.78081
3.78052
3.77743
3.77466
3.77415
1
1
1
1
1
1
1
1
1
1
1
1
1
1
1
1
1
0.999998
0.999998
0.999985
1.00023
1.01177
1.11889
1.47863
2.24297
2.96018
3.5314
3.69668
3.71275
3.72521
3.72955
3.72297
3.71958
3.72319
3.73165
3.74047
3.74855
3.75632
3.76322
3.76996
3.77524
3.77569
3.77609
3.7782
3.77872
3.77577
3.77362
3.77263
1
1
1
1
1
1
1
1
1
1
1
1
1
1
1
1
1
1
1
0.999998
0.999999
0.999986
1.00041
1.0085
1.12217
1.47183
2.22528
2.92083
3.43607
3.68605
3.75761
3.75958
3.7586
3.757
3.75243
3.75708
3.76486
3.77143
3.77985
3.78621
3.78791
3.78464
3.78078
3.77854
3.77541
3.77099
3.76841
3.76679
1
1
1
1
1
1
1
1
1
1
1
1
1
1
1
1
1
1
1
1
1
0.999998
0.999998
0.999988
1.00063
1.0099
1.10823
1.52433
2.24376
3.02165
3.3809
3.60168
3.71617
3.74228
3.7369
3.75201
3.76528
3.77104
3.77908
3.78392
3.78576
3.78512
3.78272
3.78181
3.78002
3.77658
3.77438
3.77348
1
1
1
1
1
1
1
1
1
1
1
1
1
1
1
1
1
1
1
1
1
1
1
0.999998
0.999999
0.99999
1.00057
1.01603
1.11516
1.57517
2.29179
3.17035
3.4899
3.59334
3.64255
3.69176
3.71765
3.73353
3.74773
3.76006
3.76852
3.77295
3.7725
3.77083
3.76984
3.76976
3.77175
3.77382
1
1
1
1
1
1
1
1
1
1
1
1
1
1
1
1
1
1
1
1
1
1
1
1
1
0.999999
0.999999
0.999999
1.00068
1.02294
1.15176
1.65738
2.46203
3.22019
3.63524
3.68837
3.7142
3.72636
3.73322
3.7443
3.75307
3.755
3.75399
3.75697
3.75975
3.76292
3.7665
3.76976
1
1
1
1
1
1
1
1
1
1
1
1
1
1
1
1
1
1
1
1
1
1
1
1
1
1
1
1
0.999998
1.00003
1.00137
1.03093
1.23689
1.81547
2.67083
3.32908
3.67829
3.77538
3.78007
3.78289
3.78145
3.77783
3.76971
3.77054
3.77343
3.77614
3.77733
3.77826
1
1
1
1
1
1
1
1
1
1
1
1
1
1
1
1
1
1
1
1
1
1
1
1
1
1
1
1
1
1
0.999998
1.00008
1.00368
1.05228
1.37674
2.09175
2.94116
3.3946
3.65273
3.75913
3.76083
3.76476
3.77869
3.78379
3.78715
3.78948
3.78927
3.7882
1
1
1
1
1
1
1
1
1
1
1
1
1
1
1
1
1
1
1
1
1
1
1
1
1
1
1
1
1
1
1
1
0.999996
1.00028
1.01109
1.1028
1.58014
2.42024
3.32507
3.54768
3.63054
3.68401
3.72155
3.74353
3.75798
3.77015
3.77806
3.78158
1
1
1
1
1
1
1
1
1
1
1
1
1
1
1
1
1
1
1
1
1
1
1
1
1
1
1
1
1
1
1
1
0.999999
0.999999
1.00001
1.00105
1.03194
1.22403
1.92508
2.82273
3.51614
3.69189
3.72575
3.7383
3.74501
3.75339
3.76763
3.7729
1
1
1
1
1
1
1
1
1
1
1
1
1
1
1
1
1
1
1
1
1
1
1
1
1
1
1
1
1
1
1
1
1
1
1
0.999998
1.00014
1.00466
1.09021
1.47505
2.39455
3.20589
3.6551
3.79331
3.79848
3.79656
3.79682
3.79276
1
1
1
1
1
1
1
1
1
1
1
1
1
1
1
1
1
1
1
1
1
1
1
1
1
1
1
1
1
1
1
1
1
1
1
1
0.999999
1
1.00108
1.021
1.25849
1.96077
2.96481
3.41919
3.63671
3.7733
3.77618
3.77622
1
1
1
1
1
1
1
1
1
1
1
1
1
1
1
1
1
1
1
1
1
1
1
1
1
1
1
1
1
1
1
1
1
1
1
1
1
1
0.999999
1.0001
1.008
1.09428
1.60588
2.57735
3.45957
3.62848
3.67854
3.69752
1
1
1
1
1
1
1
1
1
1
1
1
1
1
1
1
1
1
1
1
1
1
1
1
1
1
1
1
1
1
1
1
1
1
1
1
1
1
1
1
1.00001
1.00141
1.04322
1.34184
2.23488
3.20108
3.68994
3.74141
1
1
1
1
1
1
1
1
1
1
1
1
1
1
1
1
1
1
1
1
1
1
1
1
1
1
1
1
1
1
1
1
1
1
1
1
1
1
1
1
1
1
1.00041
1.01497
1.20647
1.92234
2.87459
3.49818
1
1
1
1
1
1
1
1
1
1
1
1
1
1
1
1
1
1
1
1
1
1
1
1
1
1
1
1
1
1
1
1
1
1
1
1
1
1
1
1
1
1
1
1.0001
1.00623
1.0986
1.69485
2.69402
1
1
1
1
1
1
1
1
1
1
1
1
1
1
1
1
1
1
1
1
1
1
1
1
1
1
1
1
1
1
1
1
1
1
1
1
1
1
1
1
1
1
1
1
1.00002
1.00207
1.07454
1.42724
1
1
1
1
1
1
1
1
1
1
1
1
1
1
1
1
1
1
1
1
1
1
1
1
1
1
1
1
1
1
1
1
1
1
1
1
1
1
1
1
1
1
1
1
1
1
1.00164
1.01605
1
1
1
1
1
1
1
1
1
1
1
1
1
1
1
1
1
1
1
1
1
1
1
1
1
1
1
1
1
1
1
1
1
1
1
1
1
1
1
1
1
1
1
1
1
1
1.00001
0.999833
1
1
1
1
1
1
1
1
1
1
1
1
1
1
1
1
1
1
1
1
1
1
1
1
1
1
1
1
1
1
1
1
1
1
1
1
1
1
1
1
1
1
1
1
1
1
1
0.999938
1
1
1
1
1
1
1
1
1
1
1
1
1
1
1
1
1
1
1
1
1
1
1
1
1
1
1
1
1
1
1
1
1
1
1
1
1
1
1
1
1
1
1
1
1
1
1
0.99999
1
1
1
1
1
1
1
1
1
1
1
1
1
1
1
1
1
1
1
1
1
1
1
1
1
1
1
1
1
1
1
1
1
1
1
1
1
1
1
1
1
1
1
1
1
1
1
1
1
1
1
1
1
1
1
1
1
1
1
1
1
1
1
1
1
1
1
1
1
1
1
1
1
1
1
1
1
1
1
1
1
1
1
1
1
1
1
1
1
1
1
1
1
1
1
1
1
1
1
1
1
1
1
1
1
1
1
1
1
1
1
1
1
1
1
1
1
1
1
1
1
1
1
1
1
1
1
1
1
1
1
1
1
1
1
1
1
1
1
1
1
1
1
1
1
1
1
1
1
1
1
1
1
1
1
1
1
1
1
1
1
1
1
1
1
1
1
1
1
1
1
1
1
1
1
1
1
1
1
1
1
1
1
1
1
1
1
1
1
1
1
1
1
1
1
1
1
1
1
1
1
1
1
1
1
1
1
1
1
1
1
1
1
1
1
1
1
1
1
1
1
1
1
1
1
1
1
1
1
1
1
1
1
1
1
1
1
1
1
1
1
1
1
1
1
1
1
1
1
1
1
1
1
1
1
1
1
1
1
1
1
1
1
1
1
1
1
1
1
1
1
1
1
1
1
1
1
1
1
1
1
1
1
1
1
1
1
1
1
1
1
1
1
1
1
1
1
1
1
1
1
1
1
1
1
1
1
1
1
1
1
1
1
1
1
1
1
1
1
1
1
1
1
1
1
1
1
1
1
1
1
1
1
1
1
0.999991
1
1
1
1
1
1
1
1
1
1
1
1
1
1
1
1
1
1
1
1
1
1
1
1
1
1
1
1
1
1
1
1
1
1
1
1
1
1
1
1
1
1
1
1
1
1
1
0.999939
1
1
1
1
1
1
1
1
1
1
1
1
1
1
1
1
1
1
1
1
1
1
1
1
1
1
1
1
1
1
1
1
1
1
1
1
1
1
1
1
1
1
1
1
1
1
1.00001
0.999834
1
1
1
1
1
1
1
1
1
1
1
1
1
1
1
1
1
1
1
1
1
1
1
1
1
1
1
1
1
1
1
1
1
1
1
1
1
1
1
1
1
1
1
1
1
1
1.00166
1.01627
1
1
1
1
1
1
1
1
1
1
1
1
1
1
1
1
1
1
1
1
1
1
1
1
1
1
1
1
1
1
1
1
1
1
1
1
1
1
1
1
1
1
1
1
1.00002
1.00204
1.0752
1.42667
1
1
1
1
1
1
1
1
1
1
1
1
1
1
1
1
1
1
1
1
1
1
1
1
1
1
1
1
1
1
1
1
1
1
1
1
1
1
1
1
1
1
1
1.0001
1.00626
1.09824
1.69771
2.6855
1
1
1
1
1
1
1
1
1
1
1
1
1
1
1
1
1
1
1
1
1
1
1
1
1
1
1
1
1
1
1
1
1
1
1
1
1
1
1
1
1
1
1.00041
1.01496
1.20652
1.92303
2.87525
3.49254
1
1
1
1
1
1
1
1
1
1
1
1
1
1
1
1
1
1
1
1
1
1
1
1
1
1
1
1
1
1
1
1
1
1
1
1
1
1
1
1
1.00001
1.00141
1.04322
1.34187
2.23437
3.20244
3.68951
3.73957
1
1
1
1
1
1
1
1
1
1
1
1
1
1
1
1
1
1
1
1
1
1
1
1
1
1
1
1
1
1
1
1
1
1
1
1
1
1
0.999999
1.0001
1.008
1.09427
1.60591
2.57728
3.45956
3.62851
3.67878
3.69729
1
1
1
1
1
1
1
1
1
1
1
1
1
1
1
1
1
1
1
1
1
1
1
1
1
1
1
1
1
1
1
1
1
1
1
1
0.999999
1
1.00108
1.02099
1.25848
1.96078
2.96481
3.41914
3.6369
3.77316
3.77624
3.77624
1
1
1
1
1
1
1
1
1
1
1
1
1
1
1
1
1
1
1
1
1
1
1
1
1
1
1
1
1
1
1
1
1
1
1
0.999998
1.00014
1.00466
1.09021
1.47505
2.39453
3.2059
3.65507
3.79331
3.79852
3.79655
3.79679
3.79274
1
1
1
1
1
1
1
1
1
1
1
1
1
1
1
1
1
1
1
1
1
1
1
1
1
1
1
1
1
1
1
1
0.999999
0.999999
1.00001
1.00105
1.03194
1.22403
1.92509
2.82272
3.51613
3.69192
3.72574
3.73831
3.74502
3.75338
3.76761
3.77288
1
1
1
1
1
1
1
1
1
1
1
1
1
1
1
1
1
1
1
1
1
1
1
1
1
1
1
1
1
1
1
1
0.999996
1.00028
1.01109
1.1028
1.58014
2.42025
3.32507
3.54766
3.63054
3.68403
3.72155
3.74352
3.75797
3.77015
3.77805
3.78157
1
1
1
1
1
1
1
1
1
1
1
1
1
1
1
1
1
1
1
1
1
1
1
1
1
1
1
1
1
1
0.999998
1.00008
1.00368
1.05228
1.37674
2.09175
2.94116
3.39461
3.65273
3.75912
3.76084
3.76477
3.77869
3.78378
3.78714
3.78947
3.78927
3.78819
1
1
1
1
1
1
1
1
1
1
1
1
1
1
1
1
1
1
1
1
1
1
1
1
1
1
1
1
0.999998
1.00003
1.00137
1.03093
1.23689
1.81546
2.67083
3.32908
3.67829
3.77538
3.78008
3.78289
3.78145
3.77784
3.76971
3.77053
3.77343
3.77614
3.77732
3.77826
1
1
1
1
1
1
1
1
1
1
1
1
1
1
1
1
1
1
1
1
1
1
1
1
1
0.999999
0.999999
0.999999
1.00068
1.02294
1.15176
1.65738
2.46203
3.22019
3.63524
3.68837
3.71421
3.72636
3.73322
3.74431
3.75307
3.755
3.75399
3.75697
3.75975
3.76291
3.7665
3.76976
1
1
1
1
1
1
1
1
1
1
1
1
1
1
1
1
1
1
1
1
1
1
1
0.999998
0.999999
0.99999
1.00057
1.01603
1.11516
1.57517
2.29179
3.17035
3.4899
3.59334
3.64255
3.69176
3.71765
3.73353
3.74773
3.76006
3.76852
3.77295
3.7725
3.77083
3.76984
3.76975
3.77174
3.77382
1
1
1
1
1
1
1
1
1
1
1
1
1
1
1
1
1
1
1
1
1
0.999998
0.999998
0.999988
1.00063
1.0099
1.10823
1.52433
2.24376
3.02165
3.3809
3.60168
3.71617
3.74228
3.7369
3.75201
3.76528
3.77104
3.77908
3.78392
3.78576
3.78513
3.78272
3.78181
3.78002
3.77658
3.77438
3.77348
1
1
1
1
1
1
1
1
1
1
1
1
1
1
1
1
1
1
1
0.999998
0.999999
0.999986
1.00041
1.0085
1.12217
1.47183
2.22528
2.92083
3.43607
3.68604
3.75761
3.75958
3.7586
3.757
3.75243
3.75708
3.76486
3.77143
3.77985
3.78621
3.78791
3.78464
3.78078
3.77854
3.77541
3.77098
3.7684
3.76679
1
1
1
1
1
1
1
1
1
1
1
1
1
1
1
1
1
0.999998
0.999998
0.999985
1.00023
1.01177
1.11889
1.47863
2.24297
2.96018
3.5314
3.69668
3.71275
3.72521
3.72955
3.72297
3.71958
3.72319
3.73165
3.74047
3.74855
3.75632
3.76322
3.76996
3.77524
3.77569
3.77609
3.7782
3.77872
3.77577
3.77362
3.77263
1
1
1
1
1
1
1
1
1
1
1
1
1
1
1
0.999998
0.999998
0.999982
1.0003
1.01447
1.10683
1.54944
2.28699
3.10052
3.57085
3.63801
3.70639
3.7004
3.69282
3.7031
3.71008
3.71611
3.72565
3.73839
3.7484
3.75575
3.75956
3.7629
3.76617
3.76936
3.77486
3.7785
3.77957
3.78081
3.78052
3.77743
3.77466
3.77416
1
1
1
1
1
1
1
1
1
1
1
1
1
0.999997
0.999998
0.999974
1.00067
1.01369
1.13802
1.62511
2.34478
3.24417
3.52165
3.6543
3.69592
3.72869
3.73988
3.7231
3.71687
3.72391
3.73579
3.74834
3.75997
3.77177
3.77414
3.77236
3.76944
3.76744
3.76678
3.7673
3.77232
3.77773
3.77873
3.77814
3.77667
3.7745
3.77248
3.77268
1
1
1
1
1
1
1
1
1
1
1
0.999997
0.999998
0.999963
1.00061
1.01577
1.20118
1.67727
2.57543
3.22844
3.63981
3.85523
3.85432
3.84596
3.80194
3.76213
3.74104
3.72625
3.72335
3.73027
3.74662
3.76924
3.78118
3.78208
3.78009
3.77873
3.7774
3.77437
3.77055
3.76882
3.76849
3.77229
3.77453
3.77321
3.77034
3.76751
3.76431
3.76513
1
1
1
1
1
1
1
1
1
0.999997
0.999998
0.999955
1.00069
1.03001
1.23248
1.78137
2.71978
3.37817
3.90445
3.93532
3.91566
3.84331
3.80223
3.77046
3.74107
3.71191
3.70015
3.70001
3.70843
3.73115
3.74983
3.76233
3.77147
3.77515
3.77557
3.77547
3.77533
3.77372
3.77184
3.77156
3.77333
3.7772
3.77971
3.77849
3.77539
3.77148
3.76568
3.76419
1
1
1
1
1
1
1
1
1
0.999931
1.00169
1.04842
1.28187
2.00981
2.84645
3.65113
4.04218
4.05527
3.9959
3.92976
3.82391
3.74152
3.70788
3.68613
3.68088
3.69109
3.70352
3.71641
3.73061
3.74193
3.75026
3.75644
3.76491
3.77214
3.7736
3.77376
3.77362
3.77295
3.77231
3.7727
3.7751
3.7794
3.78379
3.78606
3.78521
3.78267
3.77802
3.77462
1
1
1
1
0.999999
0.999983
1.00006
1.00008
1.00586
1.07075
1.41024
2.14968
3.11791
3.93744
4.02605
4.02048
3.98863
3.88947
3.80311
3.74633
3.72198
3.69691
3.68366
3.69104
3.70615
3.72302
3.74152
3.75423
3.76383
3.77047
3.77659
3.78124
3.78273
3.78239
3.78087
3.77676
3.77191
3.76865
3.7665
3.76583
3.76685
3.76957
3.77411
3.7788
3.78052
3.77894
3.77665
3.77532
1
0.999982
1.00001
1.00009
1.00148
1.01271
1.06421
1.21873
1.61089
2.33432
3.34335
3.91484
4.29117
4.32045
4.2588
4.12994
3.96463
3.7581
3.65712
3.64952
3.66137
3.67914
3.70205
3.73528
3.76156
3.77091
3.77499
3.7765
3.77561
3.77839
3.78126
3.78351
3.78339
3.78072
3.77696
3.7726
3.76734
3.76261
3.75986
3.75957
3.76028
3.76232
3.76754
3.77523
3.77999
3.78096
3.78068
3.78148
1.00244
1.01753
1.06398
1.20505
1.41462
1.75869
2.22488
2.75436
3.32346
3.71351
3.9265
4.03599
4.02169
3.94906
3.85046
3.77989
3.72442
3.71093
3.67532
3.66451
3.67397
3.69556
3.71908
3.74529
3.76108
3.76685
3.76883
3.76467
3.76342
3.76341
3.76345
3.7658
3.76958
3.77337
3.77702
3.77792
3.77612
3.77247
3.76853
3.76731
3.76764
3.7686
3.77125
3.77635
3.77893
3.77916
3.77807
3.77543
1.29114
1.74215
2.33859
2.91601
3.51069
4.20502
4.66843
5.07945
5.33641
5.25781
4.95969
4.48645
4.05424
3.76534
3.66441
3.58756
3.56565
3.59294
3.62869
3.65898
3.68819
3.70932
3.72868
3.74679
3.75334
3.75569
3.75642
3.76025
3.76236
3.76089
3.75882
3.76117
3.77124
3.78643
3.7961
3.79694
3.79508
3.78944
3.78037
3.77184
3.76918
3.76914
3.76984
3.77144
3.77257
3.77294
3.77231
3.76851
2.65488
1.66891
1.16082
0.882522
0.656257
0.63397
0.679606
0.746746
0.773003
0.824287
0.946418
1.00474
0.995428
0.999826
1.02999
1.03904
1.04254
1.05614
1.07776
1.078
1.07338
1.06854
1.06705
1.05949
1.04976
1.0495
1.05156
1.05123
1.04873
1.04448
1.03944
1.03546
1.03493
1.03567
1.03875
1.04494
1.04822
1.04888
1.04906
1.04767
1.04484
1.04504
1.04666
1.04946
1.05114
1.05098
1.0501
1.04948
1.05747
1.23927
1.87237
3.19682
5.24146
7.78167
10.2324
10.1396
9.36673
8.44684
8.13834
7.92027
7.62703
7.43937
7.3401
7.31591
7.24822
7.10726
6.92184
6.62661
6.27911
6.11616
6.04445
6.0096
5.99885
5.93391
5.8455
5.69105
5.42822
5.24728
5.17737
5.11587
5.0506
4.98472
4.91064
4.79576
4.61636
4.50459
4.46281
4.42898
4.40228
4.36353
4.31383
4.21934
4.03843
3.86466
3.78741
3.746
3.71327
3.68602
3.65759
3.62494
3.59135
3.54335
3.44082
3.32747
3.26251
3.21961
3.17772
3.13377
3.08217
3.0122
2.95122
2.92272
2.90249
2.88215
2.85924
2.8287
2.77435
2.67342
2.57365
2.53482
2.51739
2.50517
2.49847
2.48579
2.46521
2.42341
2.33903
2.27085
2.25415
2.24238
2.22788
2.21262
2.19612
2.17417
2.13191
2.06182
2.01917
2.00411
1.99063
1.97488
1.95707
1.93098
1.88603
1.86408
1.87702
1.97516
2.32138
2.99329
3.81172
4.51701
5.05076
5.49197
5.53673
5.39393
5.2648
5.22362
5.19773
5.16676
5.11695
5.02034
4.8585
4.7539
4.73138
4.71504
4.70813
4.69633
4.66996
4.6396
4.59553
4.53683
4.48859
4.45406
4.42106
4.38001
4.32344
4.26108
4.20986
4.1664
4.12148
4.07172
4.02259
3.99155
3.97523
3.96049
3.94825
3.93746
3.91973
3.89606
3.85632
3.77764
3.69877
3.64246
3.38105
2.73513
2.1365
1.81675
1.47713
1.20491
1.14568
1.06212
0.973514
0.958849
0.956982
0.932983
0.917002
0.922958
0.949611
0.979116
0.993554
1.01199
1.04015
1.04305
1.03959
1.04161
1.04908
1.05004
1.04865
1.04996
1.05466
1.05475
1.05181
1.04813
1.04469
1.04258
1.04201
1.04195
1.04459
1.0488
1.0497
1.04975
1.04932
1.04748
1.04523
1.04468
1.04541
1.04723
1.04809
1.04719
1.04753
1.0577
1.21385
1.96621
2.80195
3.22926
3.97171
4.80019
6.57708
8.01651
8.63344
8.51309
8.2919
7.98407
7.6495
7.47509
7.37726
7.2903
7.19522
7.06747
6.91816
6.69988
6.41066
6.17034
6.04298
5.97163
5.92492
5.8735
5.79223
5.68411
5.48836
5.27524
5.17635
5.12428
5.07832
5.0149
4.93924
4.83416
4.67905
4.52957
4.45319
4.41119
4.37288
4.33144
4.27644
4.19299
4.06151
3.91599
3.82489
3.77172
3.73101
3.6947
3.66459
3.63977
3.59342
3.50907
3.41621
3.33708
3.27173
3.22503
3.19217
3.15922
3.11371
3.05177
2.98979
2.9504
2.92386
2.9006
2.87574
2.84121
2.78229
2.6943
2.60996
2.56104
2.53045
2.50774
2.49043
2.47658
2.46041
2.4325
2.37122
2.29236
2.25402
2.23961
2.23522
2.2293
2.21272
2.1907
2.15522
2.09579
2.04487
2.02292
2.00763
1.99132
1.97396
1.94916
1.92807
1.95426
2.07761
2.39059
2.8374
3.16756
3.49899
3.96634
4.29157
4.64542
4.90659
5.0696
5.21463
5.26108
5.24314
5.191
5.11723
5.02089
4.89774
4.79851
4.75566
4.7388
4.72605
4.71336
4.68792
4.6548
4.60646
4.54435
4.49752
4.46645
4.43458
4.39353
4.33531
4.26841
4.21774
4.17831
4.13776
4.09112
4.04549
4.01502
3.9973
3.98105
3.96581
3.95076
3.93138
3.90502
3.86042
3.78535
3.71648
3.66357
3.666
3.34479
2.84291
2.3818
1.99593
1.63084
1.4281
1.28318
1.09359
1.00291
0.988148
0.943265
0.916691
0.921684
0.93509
0.946877
0.955241
0.971523
1.00018
1.01531
1.02018
1.02501
1.03587
1.04119
1.04225
1.04764
1.05476
1.05651
1.05574
1.05255
1.04784
1.046
1.04556
1.04605
1.04905
1.05008
1.04962
1.04879
1.04651
1.04418
1.04392
1.04422
1.04569
1.04736
1.04704
1.04949
1.07609
1.236
2.05498
2.98113
3.3338
3.42827
3.4956
3.56786
4.08987
5.84887
7.85247
8.6603
8.519
8.10024
7.72377
7.528
7.35645
7.17343
7.03647
6.93893
6.84153
6.71796
6.53442
6.30614
6.08874
5.95763
5.88155
5.79999
5.70668
5.60551
5.49469
5.34069
5.19885
5.10348
5.02867
4.9593
4.88513
4.79875
4.69708
4.57894
4.46965
4.40275
4.34702
4.28383
4.20577
4.11501
4.02843
3.95419
3.87052
3.79924
3.76185
3.73265
3.69036
3.62697
3.5423
3.43863
3.35606
3.31278
3.28169
3.24512
3.19561
3.13939
3.08152
3.02085
2.96585
2.92154
2.88485
2.85116
2.81877
2.78231
2.73135
2.66968
2.62543
2.58888
2.54972
2.51586
2.49168
2.46965
2.44273
2.40464
2.35022
2.29555
2.26547
2.24452
2.21836
2.19853
2.18503
2.16732
2.13754
2.09125
2.0379
1.99939
1.98146
1.96984
1.96475
1.96794
2.01602
2.24496
2.58748
2.9983
3.22133
3.28289
3.33476
3.4256
3.60313
3.91091
4.42523
4.84398
5.10264
5.2572
5.23793
5.16833
5.08288
4.99367
4.91097
4.85226
4.79233
4.72769
4.69775
4.68032
4.65757
4.62566
4.58615
4.54234
4.49806
4.44862
4.3991
4.35312
4.3008
4.24692
4.20666
4.17672
4.15017
4.12104
4.07695
4.01131
3.96582
3.94844
3.93194
3.91441
3.89373
3.86666
3.82585
3.77092
3.72891
3.6675
3.75212
3.62516
3.31766
2.90322
2.51087
2.11205
1.82408
1.62967
1.41252
1.23878
1.18585
1.10589
1.00442
0.997366
0.990032
0.965461
0.947355
0.951021
0.954363
0.956629
0.961297
0.972084
0.996226
1.01896
1.03065
1.04033
1.04766
1.04884
1.04965
1.04714
1.04468
1.04597
1.05078
1.05764
1.06022
1.05973
1.05776
1.05367
1.04796
1.04587
1.04582
1.04626
1.04684
1.04771
1.05271
1.12027
1.4276
2.0674
3.1577
3.43952
3.45834
3.46277
3.46914
3.42669
3.35491
3.6293
4.95419
7.10089
7.93232
7.94939
7.83712
7.63669
7.37645
7.09446
6.91525
6.83776
6.77558
6.67961
6.57255
6.42
6.20606
5.99039
5.84261
5.74686
5.65161
5.55924
5.4793
5.39773
5.26534
5.11359
5.0086
4.92873
4.8609
4.80604
4.75108
4.66419
4.53308
4.39239
4.29495
4.21523
4.13721
4.07097
4.02379
3.97981
3.92421
3.85678
3.79016
3.71798
3.64523
3.5615
3.47431
3.40675
3.35988
3.3192
3.27716
3.24431
3.21345
3.15957
3.08323
3.01484
2.9662
2.92738
2.88798
2.84166
2.78895
2.74034
2.70821
2.68904
2.6675
2.6367
2.59606
2.54795
2.495
2.44914
2.41699
2.38852
2.35635
2.32291
2.29256
2.26174
2.22694
2.19219
2.16977
2.1564
2.13936
2.10287
2.0469
2.00526
1.98555
1.98276
2.00605
2.11706
2.43846
2.89191
3.12937
3.31204
3.37739
3.37275
3.34948
3.30123
3.30751
3.37996
3.65263
4.10818
4.57713
4.9693
5.04583
5.05215
5.04337
4.99003
4.9323
4.88936
4.8366
4.7701
4.71776
4.68043
4.64083
4.60461
4.57826
4.55183
4.51479
4.46313
4.3926
4.31285
4.2678
4.24676
4.22615
4.2056
4.18317
4.15428
4.10778
4.03309
3.96634
3.94232
3.92567
3.90553
3.87873
3.84429
3.81052
3.78046
3.74873
3.6812
3.76325
3.73342
3.58827
3.30107
2.9648
2.55363
2.22324
1.99499
1.72831
1.50487
1.39062
1.28839
1.14309
1.08839
1.05524
1.00171
0.957181
0.957824
0.954996
0.947499
0.950145
0.956477
0.968979
0.989767
1.01042
1.02206
1.02901
1.032
1.03591
1.03845
1.03765
1.03931
1.05146
1.05871
1.05911
1.05854
1.05654
1.05307
1.04986
1.04961
1.05041
1.05169
1.05112
1.0541
1.12908
1.67194
2.43429
3.13719
3.50119
3.5381
3.45911
3.41214
3.41168
3.40608
3.32828
3.23238
3.32919
4.25632
6.07703
7.50117
7.86513
7.75268
7.42422
7.13258
6.88727
6.75236
6.66605
6.60101
6.51817
6.41946
6.28539
6.06773
5.84508
5.70277
5.61477
5.53626
5.45858
5.36687
5.24405
5.07758
4.96508
4.90631
4.85273
4.79653
4.73386
4.65794
4.53169
4.34622
4.21981
4.15869
4.11538
4.07611
4.04107
4.00784
3.96799
3.91497
3.81159
3.68511
3.58374
3.50572
3.4437
3.39708
3.36363
3.33337
3.30456
3.26593
3.20249
3.12618
3.05964
3.01396
2.97599
2.93324
2.88063
2.82261
2.76687
2.72341
2.69237
2.66901
2.64976
2.62679
2.59512
2.553
2.50077
2.44913
2.40123
2.36437
2.33561
2.31212
2.28918
2.26316
2.23085
2.19761
2.17246
2.14488
2.11028
2.07499
2.04545
2.01432
2.01407
2.06942
2.28109
2.63317
3.15629
3.32689
3.39134
3.39882
3.3872
3.35682
3.3246
3.2752
3.26327
3.259
3.30052
3.46112
3.7663
4.24025
4.74189
4.93068
4.98439
4.97023
4.93322
4.90781
4.88064
4.83712
4.75565
4.65399
4.60305
4.57685
4.55937
4.53608
4.50449
4.45639
4.37123
4.28101
4.24631
4.22765
4.21476
4.20468
4.18245
4.15484
4.1198
4.06367
3.98907
3.93898
3.91134
3.88652
3.85809
3.82556
3.79271
3.76185
3.73742
3.69236
3.76297
3.7486
3.69831
3.54676
3.30851
2.96386
2.6039
2.34096
2.07607
1.82708
1.66859
1.53308
1.3625
1.2702
1.21362
1.14276
1.05924
1.04382
1.01757
0.980016
0.971702
0.97448
0.972276
0.968277
0.974896
0.981911
0.985912
0.993501
1.0036
1.01684
1.02434
1.03178
1.04704
1.05528
1.05593
1.05608
1.05502
1.05087
1.04987
1.0504
1.05226
1.05395
1.05995
1.1335
1.71594
2.75948
3.25808
3.53757
3.56239
3.49047
3.44282
3.3652
3.32563
3.32005
3.30426
3.23268
3.12668
3.15006
3.68436
5.23294
6.87633
7.4113
7.41207
7.23579
6.983
6.70706
6.55374
6.47357
6.44561
6.38117
6.27483
6.11555
5.88475
5.69616
5.59522
5.51856
5.43998
5.35203
5.23533
5.07196
4.94155
4.88319
4.8353
4.78991
4.73663
4.66722
4.53651
4.32598
4.18124
4.1335
4.10263
4.09894
4.10213
4.06412
4.01161
3.92039
3.75884
3.60947
3.53739
3.48998
3.45074
3.41843
3.38506
3.34553
3.29864
3.24319
3.16635
3.09239
3.04659
3.01334
2.98004
2.94014
2.88542
2.81094
2.74629
2.7096
2.68587
2.66706
2.65058
2.63467
2.61662
2.5831
2.51984
2.43613
2.37784
2.34757
2.33035
2.31771
2.30351
2.28318
2.25814
2.22664
2.18195
2.12976
2.09109
2.06897
2.05725
2.06926
2.16326
2.48966
2.90597
3.28166
3.52318
3.55888
3.53963
3.46218
3.38671
3.34161
3.31062
3.28205
3.26566
3.25406
3.25848
3.25654
3.29267
3.44481
3.8628
4.37725
4.6772
4.80808
4.90709
4.9714
4.95778
4.89007
4.77494
4.64802
4.58939
4.56666
4.55495
4.53638
4.50294
4.44681
4.34574
4.26528
4.24034
4.22211
4.21323
4.21496
4.19938
4.17916
4.15542
4.10742
4.01728
3.9305
3.88659
3.85582
3.82781
3.80321
3.78311
3.76311
3.74577
3.70326
3.76524
3.75497
3.73619
3.67807
3.53403
3.26747
2.97146
2.69224
2.38525
2.14179
1.95455
1.78934
1.6066
1.48308
1.38816
1.28537
1.17863
1.1351
1.09465
1.03214
0.993697
0.994711
0.985023
0.972791
0.97716
0.978013
0.97279
0.971789
0.975211
0.984911
1.00165