/*--------------------------------*- C++ -*----------------------------------*\
  =========                 |
  \\      /  F ield         | OpenFOAM: The Open Source CFD Toolbox
   \\    /   O peration     | Website:  https://openfoam.org
    \\  /    A nd           | Version:  7
     \\/     M anipulation  |
\*---------------------------------------------------------------------------*/
FoamFile
{
    version     2.0;
    format      ascii;
    class       volScalarField;
    location    "2.7";
    object      T;
}
// * * * * * * * * * * * * * * * * * * * * * * * * * * * * * * * * * * * * * //

dimensions      [0 0 0 1 0 0 0];

internalField   nonuniform List<scalar> 
18432
(
1
1
1
1
1
1
1
1
1
1
1
1
1
1
1
1
1
1
1
1
1
1
1
1
1
1
1
1
1
1
1
1
1
1
1
1
1
1
1
1
1
1
1
1
1
1
1
1
1
1
1
1
1
1
1
1
1
1
1
1
1
1
1
1
1
1
1
1
1
1
1
1
1
1
1
1
1
1
1
1
1
1
1
1
1
1
1
1
1
1
1
1
1
1
1
1
1
1
1
1
1
1
1
1
1
1
1
1
1
1
1
1
1
1
1
1
1
1
1
1
1
1
1
1
1
1
1
1
1
1
1
1
1
1
1
1
1
1
1
1
1
1
1
1
1
1
1
1
1
1
1
1
1
1
1
1
1
1
1
1
1
1
1
1
1
1
1
1
1
1
1
1
1
1
1
1
1
1
1
1
1
1
1
1
1
1
1
1
1
1
1
1
1
1
1
1
1
1
1
1
1
1
1
1
1
1
1
1
1
1
1
1
1
1
1
1
1
1
1
1
1
1
1
1
1
1
1
1
1
1
1
1
1
1
1
1
1
1
1
1
1
1
1
1
1
1
1
1
1
1
1
1
1
1
1
1
1
1
1
1
1
1
1
1
1
1
1
1
1
1
1
1
1
1
1
1
1
1
1
1
1
1
1
1
1
1
1
1
1
1
1
1
1
1
1
1
1
1
1
1
1
1
1
1
1
1
1
1
1
1
1
1
1
1
1
1
1
1
1
1
1
1
1
1
1
1
1
1
1
1
1
1
1
1
1
1
1
1
1
1
1
1
1
1
1
1
1
1
1
1
1
1
1
1
1
1
1
1
1
1
1
1
1
1
1
1
1
1
1
1
1
1
1
1
1
1
1
1
1
1
1
1
1
1
1
1
1
1
1
1
1
1
1
1
1
1
1
1
1
1
1
1
1
1
1
1
1
1
1
1
1
1
1
1
1
1
1
1
1
1
1
1
1
1
1
1
1
1
1
1
1
1
1
1
1
1
1
1
1
1
1
1
1
1
1
1
1
1
1
1
1
1
1
1
1
1
1
1
1
1
1
1
1
1
1
1
1
1
1
1
1
1
1
1
1
1
1
1
1
1
1
1
1
1
1
1
1
1
1
1
1
1
1
1
1
1
1
1
1
1
1
1
1
1
1
1
1
1
1
1
1
1
1
1
1
1
1
1
1
1
1
1
1
1
1
1
1
1
1
1
1
1
1
1
1
1
1
1
1
1
1
1
1
1
1
1
1
1
1
1
1
1
1
1
1
1
1
1
1
1
1
1
1
1
1
1
1
1
1
1
1
1
1
1
1
1
1
1
1
1
1
1
1
1
1
1
1
1
1
1
1
1
1
1
1
1
1
1
1
1
1
1
1
1
1
1
1
1
1
1
1
1
1
1
1
1
1
1
1
1
1
1
1
1
1
1
1
1
1
1
1
1
1
1
1
1
1
1
1
1
1
1
1
1
1
1
1
1
1
1
1
1
1
1
1
1
1
1
1
1
1
1
1
1
1
1
1
1
1
1
1
1
1
1
1
1
1
1
1
1
1
1
1
1
1
1
1
1
1
1
1
1
1
1
1
1
1
1
1
1
1
1
1
1
1
1
1
1
1
1
1
1
1
1
1
1
1
1
1
1
1
1
1
1
1
1
1
1
1
1
1
1
1
1
1
1
1
1
1
1
1
1
1
1
1
1
1
1
1
1
1
1
1
1
1
1
1
1
1
1
1
1
1
1
1
1
1
1
1
1
1
1
1
1
1
1
1
1
1
1
1
1
1
1
1
1
1
1
1
1
1
1
1
1
1
1
1
1
1
1
1
1
1
1
1
1
1
1
1
1
1
1
1
1
1
1
1
1
1
1
1
1
1
1
1
1
1
1
1
1
1
1
1
1
1
1
1
1
1
1
1
1
1
1
1
1
1
1
1
1
1
1
1
1
1
1
1
1
1
1
1
1
1
1
1
1
1
1
1
1
1
1
1
1
1
1
1
1
1
1
1
1
1
1
1
1
1
1
1
1
1
1
1
1
1
1
1
1
1
1
1
1
1
1
1
1
1
1
1
1
1
1
1
1
1
1
1
1
1
1
1
1
1
1
1
1
1
1
1
1
1
1
1
1
1
1
1
1
1
1
1
1
1
1
1
1
1
1
1
1
1
1
1
1
1
1
1
1
1
1
1
1
1
1
1
1
1
1
1
1
1
1
1
1
1
1
1
1
1
1
1
1
1
1
1
1
1
1
1
1
1
1
1
1
1
1
1
1
1
1
1
1
1
1
1
1
1
1
1
1
1
1
1
1
1
1
1
1
1
1
1
1
1
1
1
1
1
1
1
1
1
1
1
1
1
1
1
1
1
1
1
1
1
1
1
1
1
1
1
1
1
1
1
1
1
1
1
1
1
1
1
1
1
1
1
1
1
1
1
1
1
1
1
1
1
1
1
1
1
1
1
1
1
1
1
1
1
1
1
1
1
1
1
1
1
1
1
1
1
1
1
1
1
1
1
1
1
1
1
1
1
1
1
1
1
1
1
1
1
1
1
1
1
1
1
1
1
1
1
1
1
1
1
1
1
1
1
1
1
1
1
1
1
1
1
1
1
1
1
1
1
1
1
1
1
1
1
1
1
1
1
1
1
1
1
1
1
1
1
1
1
1
1
1
1
1
1
1
1
1
1
1
1
1
1
1
1
1
1
1
1
1
1
1
1
1
1
1
1
1
1
1
1
1
1
1
1
1
1
1
1
1
1
1
1
1
1
1
1
1
1
1
1
1
1
1
1
1
1
1
1
1
1
1
1
1
1
1
1
1
1
1
1
1
1
1
1
1
1
1
1
1
1
1
1
1
1
1
1
1
1
1
1
1
1
1
1
1
1
1
1
1
1
1
1
1
1
1
1
1
1
1
1
1
1
1
1
1
1
1
1
1
1
1
1
1
1
1
1
1
1
1
1
1
1
1
1
1
1
1
1
1
1
1
1
1
1
1
1
1
1
1
1
1
1
1
1
1
1
1
1
1
1
1
1
1
1
1
1
1
1
1
1
1
1
1
1
1
1
1
1
1
1
1
1
1
1
1
1
1
1
1
1
1
1
1
1
1
1
1
1
1
1
1
1
1
1
1
1
1
1
1
1
1
1
1
1
1
1
1
1
1
1
1
1
1
1
1
1
1
1
1
1
1
1
1
1
1
1
1
1
1
1
1
1
1
1
1
1
1
1
1
1
1
1
1
1
1
1
1
1
1
1
1
1
1
1
1
1
1
1
1
1
1
1
1
1
1
1
1
1
1
1
1
1
1
1
1
1
1
1
1
1
1
1
1
1
1
1
1
1
1
1
1
1
1
1
1
1
1
1
1
1
1
1
1
1
1
1
1
1
1
1
1
1
1
1
1
1
1
1
1
1
1
1
1
1
1
1
1
1
1
1
1
1
1
1
1
1
1
1
1
1
1
1
1
1
1
1
1
1
1
1
1
1
1
1
1
1
1
1
1
1
1
1
1
1
1
1
1
1
1
1
1
1
1
1
1
1
1
1
1
1
1
1
1
1
1
1
1
1
1
1
1
1
1
1
1
1
1
1
1
1
1
1
1
1
1
1
1
1
1
1
1
1
1
1
1
1
1
1
1
1
1
1
1
1
1
1
1
1
1
1
1
1
1
1
1
1
1
1
1
1
1
1
1
1
1
1
1
1
1
1
1
1
1
1
1
1
1
1
1
1
1
1
1
1
1
1
1
1
1
1
1
1
1
1
1
1
1
1
1
1
1
1
1
1
1
1
1
1
1
1
1
1
1
1
1
1
1
1
1
1
1
1
1
1
1
1
1
1
1
1
1
1
1
1
1
1
1
1
1
1
1
1
1
1
1
1
1
1
1
1
1
1
1
1
1
1
1
1
1
1
1
1
1
1
1
1
1
1
1
1
1
1
1
1
1
1
1
1
1
1
1
1
1
1
1
1
1
1
1
1
1
1
1
1
1
1
1
1
1
1
1
1
1
1
1
1
1
1
1
1
1
1
1
1
1
1
1
1
1
1
1
1
1
1
1
1
1
1
1
1
1
1
1
1
1
1
1
1
1
1
1
1
1
1
1
1
1
1
1
1
1
1
1
1
1
1
1
1
1
1
1
1
1
1
1
1
1
1
1
1
1
1
1
1
1
1
1
1
1
1
1
1
1
1
1
1
1
1
1
1
1
1
1
1
1
1
1
1
1
1
1
1
1
1
1
1
1
1
1
1
1
1
1
1
1
1
1
1
1
1
1
1
1
1
1
1
1
1
1
1
1
1
1
1
1
1
1
1
1
1
1
1
1
1
1
1
1
1
1
1
1
1
1
1
1
1
1
1
1
1
1
1
1
1
1
1
1
1
1
1
1
1
1
1
1
1
1
1
1
1
1
1
1
1
1
1
1
1
1
1
1
1
1
1
1
1
1
1
1
1
1
1
1
1
1
1
1
1
1
1
1
1
1
1
1
1
1
1
1
1
1
1
1
1
1
1
1
1
1
1
1
1
1
1
1
1
1
1
1
1
1
1
1
1
1
1
1
1
1
1
1
1
1
1
1
1
1
1
1
1
1
1
1
1
1
1
1
1
1
1
1
1
1
1
1
1
1
1
1
1
1
1
1
1
1
1
1
1
1
1
1
1
1
1
1
1
1
1
1
1
1
1
1
1
1
1
1
1
1
1
1
1
1
1
1
1
1
1
1
1
1
1
1
1
1
1
1
1
1
1
1
1
1
1
1
1
1
1
1
1
1
1
1
1
1
1
1
1
1
1
1
1
1
1
1
1
1
1
1
1
1
1
1
1
1
1
1
1
1
1
1
1
1
1
1
1
1
1
1
1
1
1
1
1
1
1
1
1
1
1
1
1
1
1
1
1
1
1
1
1
1
1
1
1
1
1
1
1
1
1
1
1
1
1
1
1
1
1
1
1
1
1
1
1
1
1
1
1
1
1
1
1
1
1
1
1
1
1
1
1
1
1
1
1
1
1
1
1
1
1
1
1
1
1
1
1
1
1
1
1
1
1
1
1
1
1
1
1
1
1
1
1
1
1
1
1
1
1
1
1
1
1
1
1
1
1
1
1
1
1
1
1
1
1
1
1
1
1
1
1
1
1
1
1
1
1
1
1
1
1
1
1
1
1
1
1
1
1
1
1
1
1
1
1
1
1
1
1
1
1
1
1
1
1
1
1
1
1
1
1
1
1
1
1
1
1
1
1
1
1
1
1
1
1
1
1
1
1
1
1
1
1
1
1
1
1
1
1
1
1
1
1
1
1
1
1
1
1
1
1
1
1
1
1
1
1
1
1
1
1
1
1
1
1
1
1
1
1
1
1
1
1
1
1
1
1
1
1
1
1
1
1
1
1
1
1
1
1
1
1
1
1
1
1
1
1
1
1
1
1
1
1
1
1
1
1
1
1
1
1
1
1
1
1
1
1
1
1
1
1
1
1
1
1
1
1
1
1
1
1
1
1
1
1
1
1
1
1
1
1
1
1
1
1
1
1
1
1
1
1
1
1
1
1
1
1
1
1
1
1
1
1
1
1
1
1
1
1
1
1
1
1
1
1
1
1
1
1
1
1
1
1
1
1
1
1
1
1
1
1
1
1
1
1
1
1
1
1
1
1
1
1
1
1
1
1
1
1
1
1
1
1
1
1
1
1
1
1
1
1
1
1
1
1
1
1
1
1
1
1
1
1
1
1
1
1
1
1
1
1
1
1
1
1
1
1
1
1
1
1
1
1
1
1
1
1
1
1
1
1
1
1
1
1
1
1
1
1
1
1
1
1
1
1
1
1
1
1
1
1
1
1
1
1
1
1
1
1
1
1
1
1
1
1
1
1
1
1
1
1
1
1
1
1
1
1
1
1
1
1
1
1
1
1
1
1
1
1
1
1
1
1
1
1
1
1
1
1
1
1
1
1
1
1
1
1
1
1
1
1
1
1
1
1
1
1
1
1
1
1
1
1
1
1
1
1
1
1
1
1
1
1
1
1
1
1
1
1
1
1
1
1
1
1
1
1
1
1
1
1
1
1
1
1
1
1
1
1
1
1
1
1
1
1
1
1
1
1
1
1
1
1
1
1
1
1
1
1
1
1
1
1
1
1
1
1
1
1
1
1
1
1
1
1
1
1
1
1
1
1
1
1
1
1
1
1
1
1
1
1
1
1
1
1
1
1
1
1
1
1
1
1
1
1
1
1
1
1
1
1
1
1
1
1
1
1
1
1
1
1
1
1
1
1
1
1
1
1
1
1
1
1
1
1
1
1
1
1
1
1
1
1
1
1
1
1
1
1
1
1
1
1
1
1
1
1
1
1
1
1
1
1
1
1
1
1
1
1
1
1
1
1
1
1
1
1
1
1
1
1
1
1
1
1
1
1
1
1
1
1
1
1
1
1
1
1
1
1
1
1
1
1
1
1
1
1
1
1
1
1
1
1
1
1
1
1
1
1
1
1
1
1
1
1
1
1
1
1
1
1
1
1
1
1
1
1
1
1
1
1
1
1
1
1
1
1
1
1
1
1
1
1
1
1
1
1
1
1
1
1
1
1
1
1
1
1
1
1
1
1
1
1
1
1
1
1
1
1
1
1
1
1
1
1
1
1
1
1
1
1
1
1
1
1
1
1
1
1
1
1
1
1
1
1
1
1
1
1
1
1
1
1
1
1
1
1
1
1
1
1
1
1
1
1
1
1
1
1
1
1
1
1
1
1
1
1
1
1
1
1
1
1
1
1
1
1
1
1
1
1
1
1
1
1
1
1
1
1
1
1
1
1
1
1
1
1
1
1
1
1
1
1
1
1
1
1
1
1
1
1
1
1
1
1
1
1
1
1
1
1
1
1
1
1
1
1
1
1
1
1
1
1
1
1
1
1
1
1
1
1
1
1
1
1
1
1
1
1
1
1
1
1
1
1
1
1
1
1
1
1.07818
1.17794
1.28864
1.38291
1.4698
1.56086
1.61914
1.66543
1.69548
1.69075
1.66338
1.61458
1.56901
1.53594
1.52582
1.51697
1.51419
1.5172
1.52176
1.52634
1.53087
1.53383
1.53594
1.53779
1.53869
1.53947
1.54028
1.54155
1.54188
1.54164
1.5414
1.5419
1.54364
1.54589
1.5472
1.54737
1.54726
1.5466
1.54558
1.54487
1.54485
1.5451
1.54538
1.54568
1.54587
1.54601
1.546
1.54585
1.00077
1.00589
1.02202
1.0695
1.13044
1.21277
1.30119
1.3795
1.45312
1.50356
1.53366
1.55338
1.56479
1.56187
1.55464
1.5474
1.53952
1.53684
1.53207
1.53233
1.53407
1.53692
1.53947
1.54216
1.54385
1.54486
1.54559
1.54552
1.54543
1.5453
1.54514
1.54536
1.54601
1.54677
1.54744
1.54761
1.54741
1.54691
1.54642
1.54638
1.54653
1.54684
1.54732
1.5479
1.54815
1.54817
1.548
1.54838
1
0.999995
1
1.00003
1.00052
1.0044
1.02232
1.07383
1.18459
1.34203
1.50507
1.57926
1.62257
1.62232
1.61497
1.60021
1.58052
1.55559
1.54289
1.54289
1.54467
1.54706
1.54967
1.55314
1.55537
1.55606
1.55655
1.55683
1.55669
1.55677
1.55658
1.55615
1.55577
1.55529
1.55488
1.55434
1.55352
1.55258
1.55191
1.55168
1.55165
1.55182
1.55234
1.55301
1.55323
1.55313
1.55275
1.55372
1
1
1
1
1
0.999995
1.00002
1.00003
1.00211
1.02705
1.14762
1.33424
1.49939
1.60881
1.60612
1.60312
1.59989
1.58837
1.57817
1.57182
1.56861
1.56498
1.56269
1.56313
1.56401
1.56523
1.56674
1.56787
1.56897
1.56923
1.56912
1.56868
1.5681
1.56769
1.56723
1.56642
1.56529
1.56407
1.56302
1.56242
1.56227
1.56228
1.56241
1.56242
1.56208
1.56128
1.56016
1.56091
1
1
1
1
1
1
1
1
1
0.999972
1.00063
1.01854
1.10513
1.306
1.45994
1.57672
1.6245
1.62323
1.61445
1.60636
1.59319
1.58234
1.57747
1.57377
1.57183
1.57265
1.57359
1.57476
1.57624
1.57695
1.57683
1.57666
1.57708
1.57767
1.57759
1.57719
1.57642
1.57534
1.57429
1.57379
1.57378
1.57387
1.57388
1.57355
1.57264
1.57152
1.56992
1.57042
1
1
1
1
1
1
1
1
1
0.999999
0.999999
0.999982
1.00024
1.01121
1.08685
1.24769
1.4366
1.53681
1.60778
1.60981
1.6069
1.59737
1.59181
1.58716
1.58302
1.58004
1.57886
1.5784
1.57884
1.58054
1.58181
1.58301
1.58419
1.58436
1.58416
1.58365
1.58291
1.58203
1.58128
1.58102
1.58099
1.58103
1.58094
1.58025
1.57908
1.57795
1.57653
1.57702
1
1
1
1
1
1
1
1
1
1
1
0.999999
0.999999
0.999986
1.0002
1.00576
1.07383
1.21805
1.40583
1.50928
1.56628
1.5946
1.59489
1.59444
1.58994
1.58649
1.58379
1.58094
1.57973
1.58022
1.58201
1.58502
1.58696
1.58678
1.58623
1.5856
1.58496
1.58423
1.58377
1.5836
1.58349
1.58366
1.58359
1.58304
1.58219
1.58157
1.58087
1.5812
1
1
1
1
1
1
1
1
1
1
1
1
1
0.999999
0.999999
0.99999
1.00022
1.0049
1.05037
1.2016
1.35693
1.50343
1.54327
1.56332
1.57247
1.57722
1.57806
1.57585
1.57575
1.57682
1.57863
1.58058
1.58237
1.58396
1.58409
1.58371
1.58311
1.58288
1.58296
1.58325
1.58405
1.58447
1.58439
1.58406
1.58366
1.58342
1.58317
1.58321
1
1
1
1
1
1
1
1
1
1
1
1
1
1
1
0.999999
0.999999
0.999993
1.00009
1.00508
1.03851
1.17664
1.34403
1.47804
1.54459
1.55483
1.56574
1.56708
1.56764
1.56967
1.57073
1.57167
1.57311
1.5751
1.57677
1.57794
1.57877
1.5797
1.58066
1.58152
1.58239
1.58285
1.583
1.58316
1.58321
1.5831
1.583
1.58291
1
1
1
1
1
1
1
1
1
1
1
1
1
1
1
1
1
1
1
0.999995
1.00007
1.00404
1.04268
1.15542
1.32994
1.45276
1.53376
1.55725
1.56141
1.56532
1.56623
1.56567
1.56576
1.56703
1.56895
1.57064
1.57239
1.57417
1.57569
1.57712
1.57829
1.57875
1.57921
1.57999
1.58056
1.58072
1.58104
1.5809
1
1
1
1
1
1
1
1
1
1
1
1
1
1
1
1
1
1
1
0.999999
1
0.999995
1.00013
1.00291
1.04289
1.15351
1.32193
1.44051
1.517
1.55245
1.56217
1.56332
1.56444
1.5654
1.56576
1.56683
1.56848
1.56989
1.57127
1.57281
1.57392
1.57435
1.57478
1.57535
1.57576
1.57596
1.57657
1.57644
1
1
1
1
1
1
1
1
1
1
1
1
1
1
1
1
1
1
1
1
1
0.999999
1
0.999996
1.0002
1.00339
1.03753
1.16652
1.32442
1.45413
1.50584
1.53653
1.55206
1.55723
1.55825
1.56166
1.5636
1.56426
1.56517
1.56646
1.56784
1.56896
1.56966
1.5703
1.57079
1.57108
1.57184
1.57206
1
1
1
1
1
1
1
1
1
1
1
1
1
1
1
1
1
1
1
1
1
1
1
0.999999
1
0.999996
1.00018
1.00547
1.04003
1.17845
1.33433
1.47378
1.517
1.53165
1.54164
1.55085
1.55358
1.55495
1.55641
1.55849
1.56101
1.56293
1.56366
1.56387
1.56411
1.56452
1.5657
1.5666
1
1
1
1
1
1
1
1
1
1
1
1
1
1
1
1
1
1
1
1
1
1
1
1
1
1
1
0.999998
1.00022
1.00776
1.0525
1.19717
1.36318
1.48234
1.53855
1.54601
1.54921
1.55029
1.55092
1.55277
1.55538
1.55698
1.55778
1.55839
1.55847
1.55889
1.56025
1.56151
1
1
1
1
1
1
1
1
1
1
1
1
1
1
1
1
1
1
1
1
1
1
1
1
1
1
1
1
0.999999
1.00001
1.00044
1.01044
1.081
1.23347
1.39818
1.49651
1.54534
1.55571
1.55538
1.55603
1.557
1.5579
1.55757
1.55753
1.55723
1.55736
1.55827
1.55936
1
1
1
1
1
1
1
1
1
1
1
1
1
1
1
1
1
1
1
1
1
1
1
1
1
1
1
1
1
1
0.999999
1.00002
1.00121
1.01773
1.12367
1.29183
1.44192
1.50587
1.53884
1.55274
1.55416
1.55582
1.55763
1.55757
1.55733
1.55754
1.5581
1.55887
1
1
1
1
1
1
1
1
1
1
1
1
1
1
1
1
1
1
1
1
1
1
1
1
1
1
1
1
1
1
1
1
0.999999
1.00008
1.00372
1.03501
1.17871
1.35644
1.49665
1.52512
1.53756
1.54623
1.55055
1.55239
1.55339
1.55456
1.55623
1.55752
1
1
1
1
1
1
1
1
1
1
1
1
1
1
1
1
1
1
1
1
1
1
1
1
1
1
1
1
1
1
1
1
1
1
1
1.00033
1.01075
1.07482
1.26023
1.42424
1.52575
1.54747
1.5509
1.55169
1.55155
1.55214
1.55472
1.55643
1
1
1
1
1
1
1
1
1
1
1
1
1
1
1
1
1
1
1
1
1
1
1
1
1
1
1
1
1
1
1
1
1
1
1
0.999999
1.00004
1.00151
1.03072
1.14804
1.35322
1.48171
1.54456
1.55932
1.5583
1.55793
1.55874
1.55897
1
1
1
1
1
1
1
1
1
1
1
1
1
1
1
1
1
1
1
1
1
1
1
1
1
1
1
1
1
1
1
1
1
1
1
1
1
1
1.00033
1.00693
1.08624
1.26508
1.44693
1.51111
1.53878
1.55655
1.55742
1.55781
1
1
1
1
1
1
1
1
1
1
1
1
1
1
1
1
1
1
1
1
1
1
1
1
1
1
1
1
1
1
1
1
1
1
1
1
1
1
1
1.00003
1.0026
1.03169
1.18414
1.38524
1.51839
1.53893
1.54607
1.54881
1
1
1
1
1
1
1
1
1
1
1
1
1
1
1
1
1
1
1
1
1
1
1
1
1
1
1
1
1
1
1
1
1
1
1
1
1
1
1
1
1
1.00043
1.01442
1.10935
1.32357
1.48292
1.54902
1.55445
1
1
1
1
1
1
1
1
1
1
1
1
1
1
1
1
1
1
1
1
1
1
1
1
1
1
1
1
1
1
1
1
1
1
1
1
1
1
1
1
1
1
1.00012
1.00483
1.06934
1.25404
1.43205
1.52388
1
1
1
1
1
1
1
1
1
1
1
1
1
1
1
1
1
1
1
1
1
1
1
1
1
1
1
1
1
1
1
1
1
1
1
1
1
1
1
1
1
1
1
1.00003
1.002
1.03255
1.20525
1.40238
1
1
1
1
1
1
1
1
1
1
1
1
1
1
1
1
1
1
1
1
1
1
1
1
1
1
1
1
1
1
1
1
1
1
1
1
1
1
1
1
1
1
1
1
1.00001
1.00064
1.02476
1.13145
1
1
1
1
1
1
1
1
1
1
1
1
1
1
1
1
1
1
1
1
1
1
1
1
1
1
1
1
1
1
1
1
1
1
1
1
1
1
1
1
1
1
1
1
1
1
1.00049
1.00521
1
1
1
1
1
1
1
1
1
1
1
1
1
1
1
1
1
1
1
1
1
1
1
1
1
1
1
1
1
1
1
1
1
1
1
1
1
1
1
1
1
1
1
1
1
1
1
0.999944
1
1
1
1
1
1
1
1
1
1
1
1
1
1
1
1
1
1
1
1
1
1
1
1
1
1
1
1
1
1
1
1
1
1
1
1
1
1
1
1
1
1
1
1
1
1
1
0.999981
1
1
1
1
1
1
1
1
1
1
1
1
1
1
1
1
1
1
1
1
1
1
1
1
1
1
1
1
1
1
1
1
1
1
1
1
1
1
1
1
1
1
1
1
1
1
1
0.999997
1
1
1
1
1
1
1
1
1
1
1
1
1
1
1
1
1
1
1
1
1
1
1
1
1
1
1
1
1
1
1
1
1
1
1
1
1
1
1
1
1
1
1
1
1
1
1
1
1
1
1
1
1
1
1
1
1
1
1
1
1
1
1
1
1
1
1
1
1
1
1
1
1
1
1
1
1
1
1
1
1
1
1
1
1
1
1
1
1
1
1
1
1
1
1
1
1
1
1
1
1
1
1
1
1
1
1
1
1
1
1
1
1
1
1
1
1
1
1
1
1
1
1
1
1
1
1
1
1
1
1
1
1
1
1
1
1
1
1
1
1
1
1
1
1
1
1
1
1
1
1
1
1
1
1
1
1
1
1
1
1
1
1
1
1
1
1
1
1
1
1
1
1
1
1
1
1
1
1
1
1
1
1
1
1
1
1
1
1
1
1
1
1
1
1
1
1
1
1
1
1
1
1
1
1
1
1
1
1
1
1
1
1
1
1
1
1
1
1
1
1
1
1
1
1
1
1
1
1
1
1
1
1
1
1
1
1
1
1
1
1
1
1
1
1
1
1
1
1
1
1
1
1
1
1
1
1
1
1
1
1
1
1
1
1
1
1
1
1
1
1
1
1
1
1
1
1
1
1
1
1
1
1
1
1
1
1
1
1
1
1
1
1
1
1
1
1
1
1
1
1
1
1
1
1
1
1
1
1
1
1
1
1
1
1
1
1
1
1
1
1
1
1
1
1
1
1
1
1
1
1
1
1
1
1
0.999997
1
1
1
1
1
1
1
1
1
1
1
1
1
1
1
1
1
1
1
1
1
1
1
1
1
1
1
1
1
1
1
1
1
1
1
1
1
1
1
1
1
1
1
1
1
1
1
0.999982
1
1
1
1
1
1
1
1
1
1
1
1
1
1
1
1
1
1
1
1
1
1
1
1
1
1
1
1
1
1
1
1
1
1
1
1
1
1
1
1
1
1
1
1
1
1
1
0.999944
1
1
1
1
1
1
1
1
1
1
1
1
1
1
1
1
1
1
1
1
1
1
1
1
1
1
1
1
1
1
1
1
1
1
1
1
1
1
1
1
1
1
1
1
1
1
1.0005
1.00527
1
1
1
1
1
1
1
1
1
1
1
1
1
1
1
1
1
1
1
1
1
1
1
1
1
1
1
1
1
1
1
1
1
1
1
1
1
1
1
1
1
1
1
1
1.00001
1.00063
1.02498
1.13136
1
1
1
1
1
1
1
1
1
1
1
1
1
1
1
1
1
1
1
1
1
1
1
1
1
1
1
1
1
1
1
1
1
1
1
1
1
1
1
1
1
1
1
1.00003
1.00201
1.03246
1.2059
1.40098
1
1
1
1
1
1
1
1
1
1
1
1
1
1
1
1
1
1
1
1
1
1
1
1
1
1
1
1
1
1
1
1
1
1
1
1
1
1
1
1
1
1
1.00012
1.00482
1.06935
1.25418
1.43215
1.52312
1
1
1
1
1
1
1
1
1
1
1
1
1
1
1
1
1
1
1
1
1
1
1
1
1
1
1
1
1
1
1
1
1
1
1
1
1
1
1
1
1
1.00043
1.01442
1.10935
1.32346
1.48314
1.54897
1.5542
1
1
1
1
1
1
1
1
1
1
1
1
1
1
1
1
1
1
1
1
1
1
1
1
1
1
1
1
1
1
1
1
1
1
1
1
1
1
1
1.00003
1.0026
1.03169
1.18414
1.38523
1.51838
1.53894
1.5461
1.54877
1
1
1
1
1
1
1
1
1
1
1
1
1
1
1
1
1
1
1
1
1
1
1
1
1
1
1
1
1
1
1
1
1
1
1
1
1
1
1.00033
1.00693
1.08624
1.26508
1.44693
1.5111
1.5388
1.55652
1.55742
1.55781
1
1
1
1
1
1
1
1
1
1
1
1
1
1
1
1
1
1
1
1
1
1
1
1
1
1
1
1
1
1
1
1
1
1
1
0.999999
1.00004
1.00151
1.03073
1.14804
1.35322
1.48172
1.54455
1.55932
1.5583
1.55792
1.55874
1.55897
1
1
1
1
1
1
1
1
1
1
1
1
1
1
1
1
1
1
1
1
1
1
1
1
1
1
1
1
1
1
1
1
1
1
1
1.00033
1.01075
1.07482
1.26023
1.42424
1.52575
1.54748
1.5509
1.55169
1.55156
1.55214
1.55472
1.55643
1
1
1
1
1
1
1
1
1
1
1
1
1
1
1
1
1
1
1
1
1
1
1
1
1
1
1
1
1
1
1
1
0.999999
1.00008
1.00372
1.03501
1.17871
1.35644
1.49665
1.52512
1.53756
1.54623
1.55055
1.55239
1.55339
1.55456
1.55623
1.55752
1
1
1
1
1
1
1
1
1
1
1
1
1
1
1
1
1
1
1
1
1
1
1
1
1
1
1
1
1
1
0.999999
1.00002
1.00121
1.01773
1.12367
1.29183
1.44192
1.50587
1.53884
1.55274
1.55416
1.55582
1.55763
1.55757
1.55733
1.55754
1.5581
1.55887
1
1
1
1
1
1
1
1
1
1
1
1
1
1
1
1
1
1
1
1
1
1
1
1
1
1
1
1
0.999999
1.00001
1.00044
1.01044
1.081
1.23347
1.39818
1.49651
1.54534
1.55571
1.55538
1.55603
1.557
1.5579
1.55757
1.55753
1.55723
1.55736
1.55827
1.55936
1
1
1
1
1
1
1
1
1
1
1
1
1
1
1
1
1
1
1
1
1
1
1
1
1
1
1
0.999998
1.00022
1.00776
1.0525
1.19717
1.36318
1.48234
1.53855
1.54601
1.54921
1.55029
1.55092
1.55277
1.55538
1.55698
1.55778
1.55839
1.55847
1.55889
1.56025
1.56151
1
1
1
1
1
1
1
1
1
1
1
1
1
1
1
1
1
1
1
1
1
1
1
0.999999
1
0.999996
1.00018
1.00547
1.04003
1.17845
1.33433
1.47378
1.517
1.53165
1.54164
1.55085
1.55358
1.55495
1.55641
1.55849
1.56101
1.56293
1.56366
1.56387
1.56411
1.56452
1.5657
1.5666
1
1
1
1
1
1
1
1
1
1
1
1
1
1
1
1
1
1
1
1
1
0.999999
1
0.999996
1.0002
1.00339
1.03753
1.16652
1.32442
1.45413
1.50584
1.53653
1.55206
1.55723
1.55825
1.56166
1.5636
1.56426
1.56517
1.56646
1.56784
1.56896
1.56966
1.5703
1.57079
1.57108
1.57184
1.57206
1
1
1
1
1
1
1
1
1
1
1
1
1
1
1
1
1
1
1
0.999999
1
0.999995
1.00013
1.00291
1.04289
1.15351
1.32193
1.44051
1.517
1.55245
1.56217
1.56332
1.56444
1.5654
1.56576
1.56683
1.56848
1.56989
1.57127
1.57281
1.57392
1.57435
1.57478
1.57535
1.57576
1.57596
1.57657
1.57644
1
1
1
1
1
1
1
1
1
1
1
1
1
1
1
1
1
1
1
0.999995
1.00007
1.00404
1.04268
1.15542
1.32994
1.45276
1.53376
1.55725
1.56141
1.56532
1.56623
1.56567
1.56576
1.56703
1.56895
1.57064
1.57239
1.57417
1.57569
1.57712
1.57829
1.57875
1.57921
1.57999
1.58056
1.58072
1.58104
1.5809
1
1
1
1
1
1
1
1
1
1
1
1
1
1
1
0.999999
0.999999
0.999993
1.00009
1.00508
1.03851
1.17664
1.34403
1.47804
1.54459
1.55483
1.56574
1.56708
1.56764
1.56967
1.57073
1.57167
1.57311
1.5751
1.57677
1.57794
1.57877
1.5797
1.58066
1.58152
1.58239
1.58285
1.583
1.58316
1.58321
1.5831
1.583
1.58291
1
1
1
1
1
1
1
1
1
1
1
1
1
0.999999
0.999999
0.99999
1.00022
1.0049
1.05037
1.2016
1.35693
1.50343
1.54327
1.56332
1.57247
1.57722
1.57806
1.57585
1.57575
1.57682
1.57863
1.58058
1.58237
1.58396
1.58409
1.58371
1.58311
1.58288
1.58296
1.58325
1.58405
1.58447
1.58439
1.58406
1.58366
1.58342
1.58317
1.58321
1
1
1
1
1
1
1
1
1
1
1
0.999999
0.999999
0.999986
1.0002
1.00576
1.07383
1.21805
1.40583
1.50928
1.56628
1.5946
1.59489
1.59444
1.58994
1.58649
1.58379
1.58094
1.57973
1.58022
1.58201
1.58502
1.58696
1.58678
1.58623
1.5856
1.58496
1.58423
1.58377
1.5836
1.58349
1.58366
1.58359
1.58304
1.58219
1.58157
1.58087
1.5812
1
1
1
1
1
1
1
1
1
0.999999
0.999999
0.999982
1.00024
1.01121
1.08685
1.24769
1.4366
1.53681
1.60778
1.60981
1.6069
1.59737
1.59181
1.58716
1.58302
1.58004
1.57886
1.5784
1.57884
1.58054
1.58181
1.58301
1.58419
1.58436
1.58416
1.58365
1.58291
1.58203
1.58128
1.58102
1.58099
1.58103
1.58094
1.58025
1.57908
1.57795
1.57653
1.57702
1
1
1
1
1
1
1
1
1
0.999972
1.00063
1.01854
1.10513
1.306
1.45994
1.57672
1.6245
1.62323
1.61445
1.60636
1.59319
1.58234
1.57747
1.57377
1.57183
1.57265
1.57359
1.57476
1.57624
1.57695
1.57683
1.57666
1.57708
1.57767
1.57759
1.57719
1.57642
1.57534
1.57429
1.57379
1.57378
1.57387
1.57388
1.57355
1.57264
1.57152
1.56992
1.57042
1
1
1
1
1
0.999995
1.00002
1.00003
1.00211
1.02705
1.14762
1.33424
1.49939
1.60881
1.60612
1.60312
1.59989
1.58837
1.57817
1.57182
1.56861
1.56498
1.56269
1.56313
1.56401
1.56523
1.56674
1.56787
1.56897
1.56923
1.56912
1.56868
1.5681
1.56769
1.56723
1.56642
1.56529
1.56407
1.56302
1.56242
1.56227
1.56228
1.56241
1.56242
1.56208
1.56128
1.56016
1.56091
1
0.999995
1
1.00003
1.00052
1.0044
1.02232
1.07383
1.18459
1.34203
1.50507
1.57926
1.62257
1.62232
1.61497
1.60021
1.58052
1.55559
1.54289
1.54289
1.54467
1.54706
1.54967
1.55314
1.55537
1.55606
1.55655
1.55683
1.55669
1.55677
1.55658
1.55615
1.55577
1.55529
1.55488
1.55434
1.55352
1.55258
1.55191
1.55168
1.55165
1.55182
1.55234
1.55301
1.55323
1.55313
1.55275
1.55372
1.00077
1.00589
1.02202
1.0695
1.13044
1.21277
1.30119
1.3795
1.45312
1.50356
1.53366
1.55338
1.56479
1.56187
1.55464
1.5474
1.53952
1.53684
1.53207
1.53233
1.53407
1.53692
1.53947
1.54216
1.54385
1.54486
1.54559
1.54552
1.54543
1.5453
1.54514
1.54536
1.54601
1.54677
1.54744
1.54761
1.54741
1.54691
1.54642
1.54638
1.54653
1.54684
1.54732
1.5479
1.54815
1.54817
1.548
1.54838
1.07818
1.17794
1.28864
1.38291
1.4698
1.56086
1.61914
1.66543
1.69548
1.69075
1.66338
1.61458
1.56901
1.53594
1.52582
1.51697
1.51419
1.5172
1.52176
1.52634
1.53087
1.53383
1.53594
1.53779
1.53869
1.53947
1.54028
1.54155
1.54188
1.54164
1.5414
1.54189
1.54364
1.54589
1.5472
1.54737
1.54726
1.5466
1.54558
1.54487
1.54485
1.5451
1.54538
1.54568
1.54587
1.54601
1.546
1.54585
1.40314
1.23157
1.11392
1.04641
0.979568
0.977549
1.00385
1.02837
1.03419
1.05281
1.0993
1.11231
1.10667
1.10544
1.10966
1.1114
1.11329
1.11942
1.12398
1.12284
1.11961
1.11662
1.11598
1.11417
1.1112
1.11055
1.11041
1.10987
1.10844
1.10662
1.10493
1.10342
1.10282
1.10269
1.10301
1.10454
1.1054
1.1054
1.10529
1.10447
1.10324
1.10317
1.10331
1.10381
1.10424
1.10414
1.10353
1.10309
1.1056
1.1676
1.34488
1.57832
1.81526
2.04572
2.23984
2.23671
2.18195
2.11247
2.09501
2.08246
2.06135
2.04675
2.03871
2.03724
2.03263
2.02256
2.00844
1.98389
1.95374
1.9394
1.93313
1.93009
1.92935
1.92368
1.91572
1.9017
1.87681
1.85914
1.852
1.84549
1.83828
1.83084
1.82247
1.80968
1.79032
1.77834
1.77379
1.7701
1.76738
1.7633
1.75766
1.7464
1.72426
1.70288
1.69365
1.68901
1.68547
1.68251
1.67923
1.67522
1.67071
1.66417
1.65014
1.63433
1.62518
1.6191
1.61303
1.60647
1.59862
1.58799
1.5786
1.57413
1.57097
1.56784
1.56427
1.55936
1.55044
1.5338
1.51746
1.51138
1.50881
1.50711
1.50629
1.50449
1.5013
1.49407
1.47878
1.46626
1.4634
1.46144
1.45902
1.45645
1.45348
1.44918
1.44057
1.42616
1.41706
1.4137
1.41082
1.40766
1.40415
1.39896
1.38982
1.38605
1.38903
1.41056
1.48102
1.59711
1.71176
1.79539
1.85415
1.89623
1.9086
1.89516
1.88221
1.87773
1.87501
1.87225
1.86718
1.85573
1.83623
1.82503
1.82376
1.823
1.82286
1.82226
1.82013
1.81716
1.81216
1.80519
1.79932
1.79503
1.7911
1.78656
1.78016
1.77251
1.76588
1.76032
1.75488
1.7491
1.74366
1.74069
1.73949
1.7385
1.73782
1.73718
1.73538
1.73225
1.72647
1.71527
1.70455
1.6968
1.50281
1.4161
1.31835
1.2602
1.19041
1.12092
1.10855
1.08511
1.06399
1.06636
1.06964
1.06538
1.0608
1.06223
1.0693
1.07822
1.08394
1.09105
1.09977
1.10035
1.09891
1.09926
1.1013
1.10243
1.1025
1.10304
1.10401
1.10382
1.10259
1.10136
1.10047
1.09979
1.09936
1.09913
1.09953
1.10065
1.10106
1.1011
1.1009
1.10002
1.09898
1.09868
1.09881
1.09926
1.0995
1.09898
1.09935
1.10274
1.15304
1.36332
1.53019
1.57639
1.6698
1.77155
1.95618
2.0827
2.1296
2.12363
2.11167
2.09162
2.06704
2.05423
2.04645
2.03925
2.03166
2.02223
2.01092
1.99303
1.96778
1.94651
1.93522
1.92878
1.92451
1.91981
1.91243
1.90263
1.88407
1.86299
1.85289
1.84735
1.84217
1.83526
1.82726
1.81599
1.79901
1.7825
1.77415
1.76968
1.76565
1.7611
1.75462
1.74454
1.72847
1.71059
1.69964
1.6935
1.689
1.68503
1.68126
1.67788
1.67171
1.66038
1.64771
1.63641
1.62701
1.62032
1.61558
1.61054
1.60345
1.59419
1.58499
1.57894
1.57467
1.57094
1.56722
1.562
1.55278
1.53839
1.5243
1.51632
1.51151
1.50805
1.50544
1.5033
1.50069
1.49591
1.48499
1.47047
1.4635
1.46116
1.46065
1.45972
1.45673
1.4525
1.44542
1.43324
1.42256
1.41777
1.41457
1.41143
1.40817
1.40324
1.39939
1.40531
1.43155
1.49279
1.57161
1.6237
1.67082
1.73166
1.77136
1.81128
1.84181
1.86108
1.87734
1.88298
1.88134
1.87649
1.86907
1.85787
1.84274
1.83139
1.82768
1.82683
1.82599
1.82511
1.82296
1.81979
1.81447
1.80712
1.80128
1.79717
1.7931
1.78856
1.78226
1.77445
1.76786
1.76258
1.75744
1.75194
1.74701
1.7441
1.74257
1.74134
1.74025
1.73901
1.73692
1.73356
1.72736
1.71671
1.70717
1.69988
1.53867
1.49844
1.43073
1.36115
1.29279
1.21776
1.17425
1.13963
1.09058
1.06517
1.06138
1.04796
1.04057
1.04237
1.04693
1.05177
1.05501
1.06059
1.06965
1.07433
1.076
1.07772
1.08132
1.08442
1.08589
1.08817
1.0904
1.09122
1.09111
1.09053
1.08949
1.08908
1.08905
1.08924
1.09021
1.09063
1.09064
1.09071
1.0903
1.08935
1.08909
1.08918
1.08967
1.09044
1.09064
1.09181
1.10096
1.1518
1.35674
1.54263
1.60179
1.60534
1.61071
1.622
1.70023
1.91097
2.10004
2.155
2.14197
2.10963
2.08139
2.06738
2.05416
2.03942
2.02806
2.02027
2.0129
2.00312
1.98687
1.9654
1.94525
1.93333
1.92612
1.9183
1.90956
1.89998
1.88936
1.87367
1.85889
1.8486
1.84053
1.83328
1.82575
1.81707
1.80594
1.79249
1.78042
1.77317
1.76703
1.75983
1.75058
1.73921
1.72839
1.71918
1.70891
1.70023
1.69585
1.69242
1.68705
1.67857
1.66709
1.65275
1.64099
1.63476
1.63017
1.62469
1.61739
1.60885
1.59988
1.59079
1.5826
1.57597
1.57043
1.56527
1.56033
1.55488
1.54714
1.53723
1.52933
1.52274
1.51622
1.51095
1.50727
1.50344
1.4986
1.4919
1.48213
1.4718
1.46623
1.4627
1.4583
1.45487
1.45225
1.44871
1.44273
1.43308
1.42175
1.41385
1.4102
1.40797
1.40715
1.40823
1.41914
1.46656
1.53015
1.59758
1.63252
1.64249
1.64967
1.66224
1.68698
1.72867
1.79405
1.84382
1.87303
1.88884
1.8867
1.87895
1.8694
1.85919
1.84929
1.84206
1.83507
1.82775
1.82528
1.82418
1.82236
1.81939
1.8152
1.80974
1.80364
1.79709
1.79114
1.7861
1.78043
1.77435
1.76923
1.76496
1.76112
1.75732
1.75224
1.74486
1.74021
1.7389
1.7376
1.736
1.73365
1.73004
1.72423
1.71609
1.70964
1.7011
1.55601
1.53841
1.49801
1.4414
1.38127
1.3127
1.26084
1.2205
1.16936
1.12488
1.11114
1.08899
1.05996
1.05835
1.05671
1.05001
1.04571
1.0472
1.04817
1.04875
1.05015
1.05359
1.06121
1.06869
1.07277
1.07577
1.07775
1.07866
1.07948
1.07927
1.07896
1.07954
1.08126
1.08361
1.08454
1.08444
1.08401
1.08305
1.08152
1.08107
1.08114
1.08136
1.08174
1.08236
1.08438
1.1076
1.20451
1.34959
1.54054
1.6079
1.62
1.61948
1.61895
1.61143
1.6063
1.65239
1.83569
2.05694
2.11646
2.11396
2.10448
2.0895
2.06873
2.04609
2.03149
2.02417
2.01856
2.01036
2.00099
1.98627
1.96519
1.94451
1.93063
1.92151
1.9123
1.9031
1.89493
1.88633
1.87252
1.85664
1.84565
1.8372
1.8299
1.82413
1.81831
1.80871
1.79417
1.77828
1.76705
1.75768
1.74812
1.73951
1.73342
1.72797
1.72096
1.71252
1.70377
1.69414
1.68489
1.67394
1.66152
1.65124
1.64416
1.63849
1.63242
1.62713
1.62192
1.6139
1.60292
1.59283
1.58564
1.58009
1.5745
1.5676
1.55932
1.55159
1.54644
1.5434
1.53976
1.53429
1.52727
1.51919
1.51018
1.50203
1.49607
1.49076
1.48482
1.47863
1.47299
1.46747
1.46139
1.45522
1.45086
1.44796
1.44417
1.43659
1.42491
1.41654
1.41231
1.41223
1.41736
1.44096
1.50389
1.58257
1.62122
1.64884
1.65918
1.65835
1.65465
1.64849
1.64997
1.66158
1.70162
1.76367
1.82184
1.86655
1.87396
1.8721
1.87005
1.86398
1.85793
1.8525
1.84536
1.837
1.83213
1.82922
1.82561
1.82191
1.81878
1.81496
1.80953
1.80283
1.79472
1.78572
1.78071
1.7784
1.77594
1.77295
1.76934
1.7651
1.75927
1.75076
1.74373
1.74167
1.74018
1.738
1.7346
1.72965
1.72428
1.71921
1.71403
1.70454
1.5665
1.56024
1.53934
1.50055
1.45284
1.38975
1.33677
1.29623
1.24138
1.19165
1.16547
1.14055
1.1023
1.08714
1.07733
1.06079
1.04756
1.04835
1.04787
1.04574
1.0465
1.04838
1.05226
1.05881
1.06501
1.06811
1.06968
1.07044
1.07171
1.07304
1.07326
1.07411
1.07788
1.08022
1.08041
1.08031
1.07987
1.07902
1.07836
1.07847
1.0791
1.0797
1.07967
1.08071
1.10552
1.27171
1.43796
1.53889
1.60383
1.62609
1.62265
1.62175
1.62243
1.62082
1.60868
1.59819
1.61616
1.75793
1.96953
2.10279
2.12234
2.11164
2.08424
2.06083
2.03978
2.02722
2.0189
2.01246
2.00421
1.99491
1.98168
1.96046
1.93909
1.9255
1.91675
1.90872
1.90057
1.89108
1.87845
1.86106
1.84891
1.84227
1.83618
1.82979
1.82292
1.81462
1.80037
1.77934
1.76434
1.7567
1.75126
1.74649
1.742
1.73742
1.73189
1.72472
1.71137
1.69491
1.68127
1.67013
1.6607
1.65346
1.64835
1.64373
1.63916
1.63305
1.6236
1.61274
1.60337
1.59674
1.59125
1.585
1.57707
1.56798
1.5591
1.5519
1.54656
1.54282
1.54015
1.53685
1.53154
1.52388
1.51418
1.50475
1.49595
1.48882
1.48336
1.47942
1.47545
1.47076
1.46484
1.45856
1.45359
1.44787
1.44073
1.43336
1.42695
1.42019
1.42014
1.432
1.47563
1.54105
1.62497
1.65254
1.66476
1.66652
1.66462
1.65951
1.6546
1.64766
1.6473
1.64788
1.65536
1.68028
1.72421
1.78681
1.8465
1.86551
1.87056
1.86741
1.86254
1.85928
1.85548
1.8504
1.84202
1.83177
1.82677
1.82381
1.82127
1.81781
1.81329
1.80698
1.79696
1.78675
1.78307
1.78103
1.77953
1.77806
1.77455
1.77037
1.76576
1.75924
1.75082
1.74514
1.74195
1.73883
1.7348
1.7297
1.72418
1.71906
1.71521
1.70886
1.57453
1.57063
1.56179
1.54011
1.50673
1.45735
1.40392
1.36061
1.31167
1.26389
1.23293
1.20317
1.16137
1.13844
1.1236
1.10383
1.07939
1.07538
1.06807
1.05701
1.0542
1.05501
1.05437
1.05346
1.05552
1.05753
1.05871
1.06099
1.06406
1.06815
1.07071
1.07292
1.07717
1.0794
1.07961
1.07973
1.07959
1.0786
1.07841
1.07875
1.07972
1.0803
1.08219
1.10618
1.27478
1.50848
1.58672
1.61838
1.62968
1.62417
1.62473
1.62082
1.61798
1.61698
1.61334
1.60182
1.58771
1.59254
1.67886
1.88499
2.05077
2.08903
2.08831
2.07318
2.05122
2.02815
2.01532
2.00742
2.0031
1.99553
1.98525
1.97033
1.94861
1.93024
1.92017
1.9125
1.90457
1.89553
1.88336
1.86609
1.85172
1.84484
1.83919
1.83396
1.82795
1.82024
1.80562
1.78127
1.76384
1.75789
1.75405
1.75353
1.75362
1.74811
1.74094
1.72918
1.70879
1.68897
1.67852
1.67142
1.66558
1.66081
1.65552
1.64909
1.64163
1.63365
1.62329
1.61276
1.60599
1.60095
1.59576
1.58952
1.58099
1.56912
1.55843
1.55221
1.54833
1.54551
1.54319
1.54086
1.53786
1.53183
1.52045
1.50527
1.49409
1.4881
1.48484
1.48279
1.48046
1.4769
1.47241
1.46662
1.45801
1.44764
1.43951
1.43453
1.43148
1.43379
1.45296
1.5165
1.58949
1.64791
1.68183
1.691
1.68935
1.67941
1.66816
1.66087
1.65625
1.65268
1.65107
1.65044
1.652
1.65288
1.65889
1.68196
1.74089
1.80587
1.84104
1.85396
1.86225
1.86892
1.8677
1.861
1.84906
1.83523
1.82882
1.82608
1.82414
1.82124
1.8166
1.8095
1.79771
1.78873
1.78603
1.78379
1.7825
1.78242
1.7799
1.77688
1.77386
1.76834
1.75789
1.74739
1.74189
1.73778
1.73358
1.72936
1.72555
1.72193
1.7191
1.7134
1.58006
1.57738
1.57345
1.56419
1.54378
1.50675
1.46484
1.4222
1.37064
1.32866
1.29495
1.26168
1.22142
1.19423
1.17201
1.14563
1.11644
1.1051
1.09417
1.07647
1.06471
1.06492
1.06191
1.05809
1.05931
1.05941
1.05764
1.05739
1.05854
1.06193
1.06754
1.07278
1.07759
1.08005
1.08031
1.08055
1.08082
1.08068
1.08033
1.08074
1.08177
1.08763
1.13237
1.2766
1.52795
1.62259
1.64245
1.6448
1.63927
1.62164
1.6163
1.61758
1.61532
1.61132
1.6083
1.60172
1.58891
1.57156
1.56949
1.61348
1.78047
1.96289
2.06219
2.0713
2.05865
2.0283
2.0076
1.9991
1.99403
1.99037
1.98069
1.97032