/*--------------------------------*- C++ -*----------------------------------*\
  =========                 |
  \\      /  F ield         | OpenFOAM: The Open Source CFD Toolbox
   \\    /   O peration     | Website:  https://openfoam.org
    \\  /    A nd           | Version:  7
     \\/     M anipulation  |
\*---------------------------------------------------------------------------*/
FoamFile
{
    version     2.0;
    format      ascii;
    class       volVectorField;
    location    "2.7";
    object      U;
}
// * * * * * * * * * * * * * * * * * * * * * * * * * * * * * * * * * * * * * //

dimensions      [0 1 -1 0 0 0 0];

internalField   nonuniform List<vector> 
18432
(
(3 1.36099e-16 0)
(3 5.18183e-16 0)
(3 3.75836e-16 0)
(3 2.12575e-16 0)
(3 -3.19197e-17 0)
(3 2.8256e-17 0)
(3 1.52166e-16 0)
(3 4.99846e-16 0)
(3 6.32391e-16 0)
(3 7.6613e-16 0)
(3 2.667e-16 0)
(3 1.23442e-17 0)
(3 -7.90956e-18 0)
(3 7.2609e-16 0)
(3 6.15823e-16 0)
(3 2.73707e-17 0)
(3 -8.06893e-16 0)
(3 -6.45458e-16 0)
(3 -5.77395e-16 0)
(3 -5.38788e-16 0)
(3 -2.31912e-16 0)
(3 1.6435e-16 0)
(3 5.51338e-16 0)
(3 9.92109e-16 0)
(3 9.14301e-16 0)
(3 9.90144e-16 0)
(3 1.20692e-15 0)
(3 1.91826e-15 0)
(3 1.94794e-15 0)
(3 1.5708e-15 0)
(3 7.34371e-16 0)
(3 7.65222e-16 0)
(3 8.22513e-16 0)
(3 9.6963e-16 0)
(3 6.83107e-16 0)
(3 2.74507e-16 0)
(3 4.53945e-16 0)
(3 1.02594e-15 0)
(3 1.66449e-15 0)
(3 1.65329e-15 0)
(3 9.03649e-16 0)
(3 -1.65241e-16 0)
(3 -9.2205e-16 0)
(3 -3.05548e-16 0)
(3 2.39139e-18 0)
(3 -6.0996e-16 0)
(3 -5.37543e-16 0)
(3 7.55769e-17 0)
(3 4.52505e-17 0)
(3 3.4049e-16 0)
(3 3.79053e-16 0)
(3 3.53289e-16 0)
(3 4.30263e-16 0)
(3 4.51291e-16 0)
(3 3.61363e-16 0)
(3 1.0378e-15 0)
(3 1.44501e-15 0)
(3 1.59585e-15 0)
(3 7.32569e-16 0)
(3 -5.37256e-17 0)
(3 -1.14406e-16 0)
(3 7.88131e-16 0)
(3 8.2741e-16 0)
(3 -1.15322e-15 0)
(3 -1.2915e-15 0)
(3 -1.72874e-15 0)
(3 -1.4578e-15 0)
(3 -6.8698e-16 0)
(3 2.72391e-16 0)
(3 8.03596e-16 0)
(3 1.11563e-15 0)
(3 1.401e-15 0)
(3 1.46967e-15 0)
(3 2.12589e-15 0)
(3 2.05015e-15 0)
(3 2.58024e-15 0)
(3 2.65146e-15 0)
(3 2.17241e-15 0)
(3 1.46652e-15 0)
(3 1.75337e-15 0)
(3 1.90911e-15 0)
(3 1.65763e-15 0)
(3 1.44662e-15 0)
(3 9.26748e-16 0)
(3 6.1785e-16 0)
(3 1.74969e-15 0)
(3 3.38234e-15 0)
(3 3.48854e-15 0)
(3 1.43764e-15 0)
(3 3.84308e-16 0)
(3 -1.75992e-15 0)
(3 -1.47856e-15 0)
(3 -6.35517e-16 0)
(3 -2.09542e-16 0)
(3 -5.74429e-17 0)
(3 9.08043e-16 0)
(3 -8.25906e-17 0)
(3 -1.92292e-16 0)
(3 -4.47626e-17 0)
(3 9.19822e-17 0)
(3 4.13655e-16 0)
(3 3.37105e-16 0)
(3 3.659e-16 0)
(3 7.79349e-16 0)
(3 1.55132e-15 0)
(3 1.69383e-15 0)
(3 1.80975e-16 0)
(3 -1.21231e-15 0)
(3 -1.61541e-15 0)
(3 -1.38163e-15 0)
(3 -7.20819e-16 0)
(3 -1.1361e-15 0)
(3 -5.84858e-16 0)
(3 -9.91181e-16 0)
(3 -9.17676e-16 0)
(3 4.12231e-17 0)
(3 8.51731e-16 0)
(3 1.37266e-15 0)
(3 1.50352e-15 0)
(3 1.48627e-15 0)
(3 2.21187e-15 0)
(3 3.37462e-15 0)
(3 3.12824e-15 0)
(3 2.74334e-15 0)
(3 2.48046e-15 0)
(3 2.21762e-15 0)
(3 2.14908e-15 0)
(3 1.78467e-15 0)
(3 1.33225e-15 0)
(3 7.74617e-16 0)
(3 9.30066e-16 0)
(3 6.93482e-16 0)
(3 1.98092e-16 0)
(3 7.75006e-16 0)
(3 1.79381e-15 0)
(3 1.80669e-15 0)
(3 9.39397e-16 0)
(3 6.94338e-16 0)
(3 -5.30564e-16 0)
(3 -1.23304e-15 0)
(3 -1.40252e-15 0)
(3 -9.99487e-16 0)
(3 -3.44914e-16 0)
(3 -2.11596e-16 0)
(3 4.1887e-17 0)
(3 -2.83773e-17 0)
(3 -1.2273e-16 0)
(3 -1.02244e-16 0)
(3 -1.85557e-17 0)
(3 2.7157e-16 0)
(3 3.64442e-16 0)
(3 5.51255e-16 0)
(3 1.0642e-15 0)
(3 1.18175e-15 0)
(3 1.03324e-15 0)
(3 -1.48613e-16 0)
(3 -8.39786e-16 0)
(3 -1.31226e-15 0)
(3 -1.35032e-15 0)
(3 -1.0509e-15 0)
(3 -7.03695e-16 0)
(3 1.32784e-16 0)
(3 8.32508e-16 0)
(3 1.36097e-15 0)
(3 1.25709e-15 0)
(3 -2.81979e-16 0)
(3 -5.32308e-16 0)
(3 -2.25108e-16 0)
(3 4.93085e-16 0)
(3 1.86912e-15 0)
(3 2.31384e-15 0)
(3 2.26805e-15 0)
(3 2.18393e-15 0)
(3 2.48991e-15 0)
(3 2.55212e-15 0)
(3 1.6912e-15 0)
(3 1.31578e-15 0)
(3 1.11242e-15 0)
(3 5.89128e-16 0)
(3 7.12968e-16 0)
(3 1.07852e-15 0)
(3 7.53633e-16 0)
(3 8.95071e-17 0)
(3 2.08559e-17 0)
(3 -1.54072e-16 0)
(3 6.30048e-17 0)
(3 4.25606e-16 0)
(3 -1.98812e-16 0)
(3 -7.96674e-16 0)
(3 -1.68727e-15 0)
(3 -1.74074e-15 0)
(3 -1.84449e-15 0)
(3 -1.2111e-17 0)
(3 -8.67925e-17 0)
(3 -3.95349e-16 0)
(3 -8.67377e-16 0)
(3 -6.90511e-16 0)
(3 -9.00467e-18 0)
(3 5.2895e-18 0)
(3 -1.12049e-16 0)
(3 2.14625e-17 0)
(3 -4.85587e-17 0)
(3 1.18429e-16 0)
(3 2.35939e-17 0)
(3 -2.26434e-16 0)
(3 -2.79853e-16 0)
(3 6.13328e-17 0)
(3 6.063e-16 0)
(3 2.25594e-16 0)
(3 3.11584e-16 0)
(3 1.16586e-15 0)
(3 1.19491e-15 0)
(3 -1.33974e-17 0)
(3 -1.08027e-15 0)
(3 -1.57814e-15 0)
(3 -1.5296e-15 0)
(3 -1.40291e-15 0)
(3 -1.08925e-15 0)
(3 -7.53091e-16 0)
(3 -1.09019e-15 0)
(3 -5.53305e-16 0)
(3 8.09427e-16 0)
(3 1.43753e-15 0)
(3 1.67427e-15 0)
(3 1.71038e-15 0)
(3 1.82907e-15 0)
(3 1.44382e-15 0)
(3 1.18452e-15 0)
(3 1.32571e-15 0)
(3 1.03713e-15 0)
(3 7.00524e-16 0)
(3 1.8156e-16 0)
(3 7.52824e-16 0)
(3 1.80664e-16 0)
(3 6.56269e-16 0)
(3 8.48839e-16 0)
(3 8.55663e-16 0)
(3 2.28211e-16 0)
(3 -3.71989e-16 0)
(3 -8.02113e-16 0)
(3 8.22794e-18 0)
(3 4.84998e-18 0)
(3 -7.93679e-17 0)
(3 -4.2147e-16 0)
(3 -7.02894e-16 0)
(3 -7.35194e-16 0)
(3 -6.66729e-17 0)
(3 1.71058e-16 0)
(3 3.5991e-16 0)
(3 2.14064e-16 0)
(3 -1.58971e-16 0)
(3 -5.93506e-16 0)
(3 -5.20985e-16 0)
(3 1.04589e-16 0)
(3 8.86817e-16 0)
(3 1.7483e-15 0)
(3 1.8067e-15 0)
(3 1.46413e-15 0)
(3 1.00583e-15 0)
(3 -6.44903e-16 0)
(3 -1.93601e-15 0)
(3 -1.98585e-15 0)
(3 -2.48593e-15 0)
(3 -2.71495e-15 0)
(3 -2.32385e-15 0)
(3 -2.55559e-15 0)
(3 -2.88432e-15 0)
(3 -2.65465e-15 0)
(3 -9.75675e-16 0)
(3 -2.71404e-16 0)
(3 1.40237e-16 0)
(3 7.51279e-16 0)
(3 1.36061e-15 0)
(3 1.57482e-15 0)
(3 1.1015e-15 0)
(3 7.20113e-16 0)
(3 8.32536e-16 0)
(3 6.5591e-16 0)
(3 1.13155e-16 0)
(3 -4.30722e-17 0)
(3 -2.08706e-16 0)
(3 -4.13236e-16 0)
(3 4.76131e-18 0)
(3 -1.2951e-17 0)
(3 5.1754e-16 0)
(3 1.67295e-15 0)
(3 1.72415e-15 0)
(3 1.30145e-15 0)
(3 4.4633e-17 0)
(3 1.1763e-16 0)
(3 2.0103e-16 0)
(3 1.65021e-16 0)
(3 -4.31725e-16 0)
(3 -6.92309e-16 0)
(3 -6.53541e-16 0)
(3 -4.30127e-16 0)
(3 9.64138e-18 0)
(3 4.1333e-16 0)
(3 7.68856e-16 0)
(3 5.88639e-16 0)
(3 1.554e-16 0)
(3 2.85261e-16 0)
(3 9.96131e-16 0)
(3 2.37367e-15 0)
(3 2.93332e-15 0)
(3 1.97162e-15 0)
(3 5.00916e-16 0)
(3 -8.2191e-16 0)
(3 -4.57529e-16 0)
(3 -1.04994e-15 0)
(3 -1.49768e-15 0)
(3 -1.50932e-15 0)
(3 -2.49108e-15 0)
(3 -2.00816e-15 0)
(3 -9.91586e-16 0)
(3 -1.72219e-16 0)
(3 2.48503e-16 0)
(3 1.73701e-16 0)
(3 2.5743e-16 0)
(3 6.96856e-16 0)
(3 8.21107e-16 0)
(3 7.38178e-16 0)
(3 2.21154e-16 0)
(3 6.56719e-17 0)
(3 -8.55774e-16 0)
(3 -9.84212e-16 0)
(3 -1.82211e-15 0)
(3 -2.31466e-15 0)
(3 -2.61835e-15 0)
(3 -1.31545e-15 0)
(3 -5.74403e-17 0)
(3 2.29538e-16 0)
(3 8.98153e-16 0)
(3 1.64588e-15 0)
(3 1.74845e-15 0)
(3 1.46573e-15 0)
(3 2.33653e-17 0)
(3 1.00207e-16 0)
(3 3.4542e-16 0)
(3 3.81704e-16 0)
(3 3.9977e-16 0)
(3 -1.49364e-16 0)
(3 -8.87099e-16 0)
(3 -1.33392e-15 0)
(3 -1.40511e-15 0)
(3 -1.07074e-15 0)
(3 -3.26225e-16 0)
(3 2.47419e-16 0)
(3 2.52115e-16 0)
(3 2.45805e-17 0)
(3 -1.88784e-16 0)
(3 2.27692e-16 0)
(3 6.87832e-17 0)
(3 -3.95854e-16 0)
(3 -5.52816e-16 0)
(3 -1.16252e-15 0)
(3 -1.242e-15 0)
(3 -1.08545e-16 0)
(3 -1.24969e-16 0)
(3 -2.6193e-16 0)
(3 -1.00049e-15 0)
(3 -1.63088e-15 0)
(3 9.5686e-16 0)
(3 1.85164e-15 0)
(3 1.7325e-15 0)
(3 5.42889e-16 0)
(3 2.51531e-16 0)
(3 2.68506e-16 0)
(3 3.99962e-16 0)
(3 2.49297e-16 0)
(3 -5.31128e-16 0)
(3 -1.02856e-15 0)
(3 -9.4349e-16 0)
(3 -7.33265e-16 0)
(3 -1.58201e-15 0)
(3 -1.74762e-15 0)
(3 -1.64049e-15 0)
(3 -1.13704e-15 0)
(3 -4.15827e-16 0)
(3 1.38093e-15 0)
(3 1.98263e-15 0)
(3 1.71784e-15 0)
(3 1.74329e-15 0)
(3 1.74728e-15 0)
(3 -4.55183e-17 0)
(3 2.63049e-16 0)
(3 5.5001e-16 0)
(3 8.26875e-16 0)
(3 4.16593e-16 0)
(3 4.37525e-17 0)
(3 -5.76225e-16 0)
(3 -5.2505e-16 0)
(3 -9.10728e-16 0)
(3 -9.89957e-16 0)
(3 -7.05961e-16 0)
(3 -6.49686e-17 0)
(3 4.93878e-16 0)
(3 6.39791e-16 0)
(3 2.06063e-16 0)
(3 -4.51598e-16 0)
(3 -6.35595e-16 0)
(3 -7.53864e-16 0)
(3 -4.21884e-16 0)
(3 -5.42751e-16 0)
(3 -1.73043e-15 0)
(3 -1.40371e-15 0)
(3 -1.05956e-15 0)
(3 -6.02601e-16 0)
(3 1.33585e-16 0)
(3 5.72991e-16 0)
(3 9.59302e-16 0)
(3 1.10812e-15 0)
(3 3.56053e-16 0)
(3 1.58352e-18 0)
(3 -7.52255e-17 0)
(3 4.47089e-16 0)
(3 2.53996e-16 0)
(3 -6.80412e-16 0)
(3 -4.91484e-16 0)
(3 -5.45451e-17 0)
(3 3.29177e-16 0)
(3 3.01091e-16 0)
(3 -3.75482e-16 0)
(3 -2.74709e-16 0)
(3 6.30008e-16 0)
(3 8.23154e-16 0)
(3 3.4516e-16 0)
(3 -3.30908e-17 0)
(3 1.62328e-16 0)
(3 2.21513e-16 0)
(3 4.28134e-16 0)
(3 6.54458e-16 0)
(3 -1.17463e-16 0)
(3 -1.4907e-16 0)
(3 -4.21477e-17 0)
(3 -1.41424e-16 0)
(3 -1.29963e-16 0)
(3 -4.11588e-16 0)
(3 -2.97517e-16 0)
(3 -2.13433e-16 0)
(3 -2.57836e-16 0)
(3 -7.32483e-16 0)
(3 -1.01917e-15 0)
(3 -6.67107e-16 0)
(3 -3.4332e-16 0)
(3 2.27602e-16 0)
(3 1.04936e-15 0)
(3 3.13256e-16 0)
(3 -1.96909e-16 0)
(3 7.3959e-17 0)
(3 -4.95599e-16 0)
(3 -3.21778e-16 0)
(3 -4.07675e-16 0)
(3 -2.22257e-15 0)
(3 -2.01708e-15 0)
(3 -1.65085e-15 0)
(3 -3.65448e-16 0)
(3 1.50486e-16 0)
(3 -2.72983e-17 0)
(3 3.96982e-17 0)
(3 5.40714e-16 0)
(3 4.98634e-16 0)
(3 4.29407e-16 0)
(3 5.88636e-16 0)
(3 2.17387e-16 0)
(3 2.07846e-17 0)
(3 1.27534e-17 0)
(3 2.57896e-16 0)
(3 -5.22135e-16 0)
(3 -1.43141e-15 0)
(3 -1.1034e-15 0)
(3 -1.50796e-16 0)
(3 1.19155e-15 0)
(3 9.35771e-16 0)
(3 -2.39022e-17 0)
(3 -1.4373e-15 0)
(3 -1.62153e-15 0)
(3 -1.89101e-15 0)
(3 -1.61351e-15 0)
(3 -5.87179e-16 0)
(3 -2.30391e-17 0)
(3 -2.8301e-16 0)
(3 -2.69999e-16 0)
(3 -1.2402e-16 0)
(3 4.84957e-16 0)
(3 5.49173e-16 0)
(3 7.16995e-16 0)
(3 3.49077e-16 0)
(3 3.60082e-17 0)
(3 -4.70928e-17 0)
(3 -5.24235e-16 0)
(3 -6.45265e-16 0)
(3 -7.83622e-16 0)
(3 -6.42828e-16 0)
(3 -7.39809e-16 0)
(3 1.2059e-16 0)
(3 3.66545e-16 0)
(3 5.97104e-16 0)
(3 -9.05203e-18 0)
(3 3.99928e-16 0)
(3 3.39649e-16 0)
(3 -1.18877e-15 0)
(3 -1.59548e-15 0)
(3 -2.02766e-15 0)
(3 -1.17504e-15 0)
(3 -5.8215e-16 0)
(3 -4.15385e-16 0)
(3 6.21212e-16 0)
(3 9.08712e-16 0)
(3 1.1113e-15 0)
(3 9.83323e-16 0)
(3 -1.75973e-16 0)
(3 1.66689e-16 0)
(3 1.01301e-15 0)
(3 1.20039e-15 0)
(3 3.35844e-16 0)
(3 -7.80593e-16 0)
(3 -1.40648e-15 0)
(3 -6.33005e-16 0)
(3 1.89393e-16 0)
(3 8.54348e-16 0)
(3 1.31148e-15 0)
(3 1.31075e-15 0)
(3 1.19377e-15 0)
(3 4.43995e-16 0)
(3 4.52632e-16 0)
(3 5.88592e-16 0)
(3 -5.00686e-17 0)
(3 8.04614e-17 0)
(3 -1.18396e-16 0)
(3 -2.51223e-16 0)
(3 3.85417e-16 0)
(3 1.01733e-15 0)
(3 1.47818e-15 0)
(3 1.43333e-15 0)
(3 1.13197e-15 0)
(3 3.67364e-16 0)
(3 6.37949e-17 0)
(3 -4.48048e-16 0)
(3 -2.88263e-16 0)
(3 7.5161e-17 0)
(3 -8.34679e-16 0)
(3 -1.26028e-15 0)
(3 -1.40351e-15 0)
(3 -7.48852e-16 0)
(3 -4.90475e-16 0)
(3 4.02257e-16 0)
(3 1.00136e-15 0)
(3 1.46586e-15 0)
(3 7.22193e-16 0)
(3 -4.13274e-16 0)
(3 -3.54345e-16 0)
(3 -6.70779e-16 0)
(3 -5.16558e-16 0)
(3 3.52184e-16 0)
(3 5.92642e-16 0)
(3 1.81291e-16 0)
(3 9.14657e-16 0)
(3 1.25253e-15 0)
(3 7.52938e-16 0)
(3 6.4656e-16 0)
(3 1.66936e-15 0)
(3 2.90113e-15 0)
(3 2.93539e-15 0)
(3 1.77863e-15 0)
(3 1.05405e-15 0)
(3 9.38273e-16 0)
(3 9.59965e-16 0)
(3 6.47806e-16 0)
(3 3.20794e-16 0)
(3 5.25874e-16 0)
(3 5.73948e-16 0)
(3 1.21342e-15 0)
(3 1.774e-15 0)
(3 1.78172e-15 0)
(3 1.51657e-15 0)
(3 4.8596e-17 0)
(3 -9.23856e-17 0)
(3 -6.05469e-17 0)
(3 -2.42596e-16 0)
(3 -1.8972e-16 0)
(3 2.66138e-16 0)
(3 8.71665e-16 0)
(3 8.65432e-16 0)
(3 3.72015e-16 0)
(3 -7.09763e-17 0)
(3 -8.37792e-17 0)
(3 -1.18967e-17 0)
(3 1.60991e-16 0)
(3 8.485e-17 0)
(3 -3.6273e-16 0)
(3 -7.25477e-16 0)
(3 -8.80373e-16 0)
(3 -6.58392e-16 0)
(3 -1.11373e-17 0)
(3 1.62531e-15 0)
(3 2.65192e-15 0)
(3 3.59073e-15 0)
(3 4.02228e-15 0)
(3 3.79094e-15 0)
(3 2.45814e-15 0)
(3 9.60921e-16 0)
(3 2.35514e-16 0)
(3 -7.53833e-16 0)
(3 -3.90716e-16 0)
(3 1.18386e-15 0)
(3 1.63701e-15 0)
(3 1.4558e-15 0)
(3 1.64954e-15 0)
(3 2.24831e-15 0)
(3 3.56208e-15 0)
(3 3.71052e-15 0)
(3 2.99191e-15 0)
(3 2.28612e-15 0)
(3 1.69338e-15 0)
(3 3.42971e-16 0)
(3 -1.60896e-16 0)
(3 -6.28574e-16 0)
(3 -6.21069e-16 0)
(3 -4.81925e-16 0)
(3 -2.84096e-16 0)
(3 1.40814e-16 0)
(3 1.15598e-15 0)
(3 1.41462e-15 0)
(3 -2.93787e-17 0)
(3 4.10033e-17 0)
(3 -1.64095e-16 0)
(3 -5.69576e-16 0)
(3 -3.40214e-16 0)
(3 -6.74813e-17 0)
(3 -2.12273e-17 0)
(3 -2.70068e-16 0)
(3 -4.29769e-16 0)
(3 -4.60049e-17 0)
(3 5.99417e-16 0)
(3 4.65149e-16 0)
(3 6.46014e-16 0)
(3 6.09192e-16 0)
(3 1.56828e-16 0)
(3 3.72734e-16 0)
(3 4.6081e-16 0)
(3 7.20423e-16 0)
(3 8.08268e-16 0)
(3 1.68681e-15 0)
(3 2.76998e-15 0)
(3 4.14304e-15 0)
(3 5.00588e-15 0)
(3 3.84494e-15 0)
(3 3.33502e-15 0)
(3 2.102e-15 0)
(3 -3.49639e-17 0)
(3 -8.83029e-16 0)
(3 -6.71877e-16 0)
(3 3.38214e-16 0)
(3 5.3522e-16 0)
(3 1.09577e-15 0)
(3 1.7145e-15 0)
(3 2.35805e-15 0)
(3 3.37415e-15 0)
(3 3.49447e-15 0)
(3 3.13202e-15 0)
(3 2.50427e-15 0)
(3 1.98837e-15 0)
(3 9.24958e-16 0)
(3 3.24798e-16 0)
(3 1.28141e-16 0)
(3 -4.98823e-17 0)
(3 -4.96972e-16 0)
(3 -6.7886e-16 0)
(3 -3.97191e-16 0)
(3 -2.47339e-16 0)
(3 -3.40909e-16 0)
(3 4.25386e-17 0)
(3 1.08529e-16 0)
(3 1.38544e-16 0)
(3 2.24154e-16 0)
(3 2.07967e-16 0)
(3 1.85077e-17 0)
(3 -3.50979e-16 0)
(3 -5.06323e-16 0)
(3 -4.90629e-16 0)
(3 -4.89108e-16 0)
(3 -2.31869e-16 0)
(3 1.52682e-16 0)
(3 6.35698e-16 0)
(3 4.38006e-17 0)
(3 -2.81681e-16 0)
(3 -4.60599e-16 0)
(3 -1.00346e-17 0)
(3 1.18174e-16 0)
(3 1.6919e-16 0)
(3 4.71216e-16 0)
(3 2.50229e-15 0)
(3 3.26011e-15 0)
(3 2.32063e-15 0)
(3 1.29803e-15 0)
(3 8.69922e-16 0)
(3 2.8761e-16 0)
(3 -2.29238e-16 0)
(3 7.2387e-17 0)
(3 1.83642e-17 0)
(3 -4.5801e-16 0)
(3 2.44117e-16 0)
(3 9.10791e-16 0)
(3 7.45911e-16 0)
(3 8.91663e-16 0)
(3 9.87681e-16 0)
(3 1.83375e-15 0)
(3 2.35655e-15 0)
(3 1.73176e-15 0)
(3 7.72528e-17 0)
(3 -7.16302e-16 0)
(3 -7.06762e-16 0)
(3 -6.32883e-16 0)
(3 -3.56948e-16 0)
(3 -2.31047e-16 0)
(3 -2.50948e-16 0)
(3 -9.97882e-16 0)
(3 -5.17134e-16 0)
(3 5.85672e-17 0)
(3 -2.50473e-17 0)
(3 5.40208e-17 0)
(3 1.87487e-16 0)
(3 2.24291e-16 0)
(3 -4.28022e-17 0)
(3 -9.78485e-17 0)
(3 7.44523e-18 0)
(3 9.94974e-17 0)
(3 3.86637e-18 0)
(3 -2.40071e-16 0)
(3 -1.58226e-16 0)
(3 -3.53834e-16 0)
(3 -3.8016e-16 0)
(3 -6.2544e-16 0)
(3 -8.59634e-16 0)
(3 -1.13822e-15 0)
(3 -1.32172e-15 0)
(3 -8.7347e-16 0)
(3 -4.59865e-16 0)
(3 7.2204e-16 0)
(3 1.50825e-15 0)
(3 1.29062e-15 0)
(3 1.07899e-15 0)
(3 1.08176e-15 0)
(3 9.43385e-16 0)
(3 9.30478e-16 0)
(3 5.67003e-16 0)
(3 5.08057e-16 0)
(3 4.91777e-16 0)
(3 2.27802e-16 0)
(3 -1.58543e-17 0)
(3 4.03091e-16 0)
(3 7.2091e-16 0)
(3 4.10597e-17 0)
(3 -6.96563e-17 0)
(3 7.9834e-16 0)
(3 1.60266e-15 0)
(3 -1.10149e-16 0)
(3 -1.30853e-15 0)
(3 -1.67854e-15 0)
(3 -9.03461e-16 0)
(3 -3.95589e-16 0)
(3 -3.24087e-16 0)
(3 4.81898e-16 0)
(3 -2.28015e-16 0)
(3 -1.27049e-15 0)
(3 -1.11063e-15 0)
(3 -7.03846e-16 0)
(3 1.33401e-17 0)
(3 5.35428e-17 0)
(3 2.4718e-17 0)
(3 2.27967e-16 0)
(3 4.04864e-16 0)
(3 7.06361e-16 0)
(3 4.99328e-16 0)
(3 3.45179e-16 0)
(3 6.03488e-16 0)
(3 7.35532e-16 0)
(3 -1.68094e-16 0)
(3 -7.18967e-16 0)
(3 -1.09473e-15 0)
(3 -5.09819e-16 0)
(3 -3.61347e-16 0)
(3 -4.88e-16 0)
(3 -1.22348e-15 0)
(3 -1.12362e-15 0)
(3 -5.27526e-16 0)
(3 -1.49863e-16 0)
(3 -1.56112e-16 0)
(3 -1.82364e-16 0)
(3 2.45856e-16 0)
(3 6.34085e-16 0)
(3 4.50924e-16 0)
(3 1.04338e-15 0)
(3 7.07231e-16 0)
(3 5.65454e-16 0)
(3 2.79118e-16 0)
(3 4.06353e-16 0)
(3 7.70848e-16 0)
(3 7.61734e-16 0)
(3 1.25208e-15 0)
(3 8.62782e-16 0)
(3 4.04552e-16 0)
(3 -7.53966e-16 0)
(3 -4.37199e-16 0)
(3 -6.41507e-16 0)
(3 -5.40556e-16 0)
(3 -4.45305e-16 0)
(3 1.09042e-15 0)
(3 1.63913e-15 0)
(3 1.22281e-15 0)
(3 4.32699e-16 0)
(3 9.60535e-17 0)
(3 4.86915e-18 0)
(3 -1.63072e-16 0)
(3 -4.90301e-16 0)
(3 -9.18533e-18 0)
(3 -4.66336e-17 0)
(3 -2.32637e-16 0)
(3 -3.81011e-17 0)
(3 2.6904e-16 0)
(3 3.28607e-16 0)
(3 3.21292e-16 0)
(3 7.8459e-16 0)
(3 8.51785e-16 0)
(3 1.05695e-15 0)
(3 1.06411e-15 0)
(3 5.88275e-16 0)
(3 -1.89588e-16 0)
(3 5.29253e-18 0)
(3 -6.30946e-16 0)
(3 -1.20738e-15 0)
(3 -3.96508e-16 0)
(3 4.06543e-16 0)
(3 -1.99555e-16 0)
(3 -1.16581e-15 0)
(3 -1.39588e-15 0)
(3 -1.14712e-15 0)
(3 -5.61467e-16 0)
(3 2.01124e-16 0)
(3 1.4457e-17 0)
(3 7.62195e-16 0)
(3 1.47444e-15 0)
(3 1.61585e-15 0)
(3 1.46897e-15 0)
(3 1.57518e-15 0)
(3 1.45961e-15 0)
(3 9.47718e-16 0)
(3 5.32204e-16 0)
(3 1.46032e-17 0)
(3 -7.63944e-16 0)
(3 -2.57309e-15 0)
(3 -3.03181e-15 0)
(3 -5.87611e-16 0)
(3 7.5753e-16 0)
(3 1.7562e-15 0)
(3 2.09009e-15 0)
(3 2.27105e-15 0)
(3 1.42473e-15 0)
(3 5.81408e-16 0)
(3 3.60956e-16 0)
(3 5.46708e-16 0)
(3 8.39236e-16 0)
(3 4.70924e-16 0)
(3 -2.90097e-16 0)
(3 -6.21779e-16 0)
(3 -1.00273e-15 0)
(3 -7.23278e-16 0)
(3 -8.29238e-16 0)
(3 -6.55515e-16 0)
(3 2.45988e-16 0)
(3 6.79016e-16 0)
(3 4.08364e-16 0)
(3 5.59276e-16 0)
(3 7.8979e-16 0)
(3 1.11149e-15 0)
(3 7.0236e-16 0)
(3 2.06744e-17 0)
(3 -1.84467e-16 0)
(3 -7.20873e-16 0)
(3 -1.53263e-16 0)
(3 7.04304e-17 0)
(3 -2.64737e-16 0)
(3 -8.35491e-16 0)
(3 -1.00265e-15 0)
(3 -1.08033e-15 0)
(3 -4.26888e-16 0)
(3 8.75412e-16 0)
(3 1.58063e-15 0)
(3 2.20331e-15 0)
(3 2.36817e-15 0)
(3 2.04299e-15 0)
(3 2.18658e-15 0)
(3 1.94193e-15 0)
(3 2.80681e-16 0)
(3 -1.13813e-15 0)
(3 -2.45746e-15 0)
(3 -2.63296e-15 0)
(3 -2.66495e-15 0)
(3 -2.30906e-15 0)
(3 -1.40278e-15 0)
(3 4.88049e-17 0)
(3 2.06867e-15 0)
(3 2.0604e-15 0)
(3 1.38198e-15 0)
(3 6.11088e-16 0)
(3 9.33744e-16 0)
(3 1.72629e-15 0)
(3 1.80511e-15 0)
(3 1.5138e-15 0)
(3 1.31736e-15 0)
(3 9.86626e-16 0)
(3 -2.09761e-17 0)
(3 -1.90393e-16 0)
(3 -5.62074e-17 0)
(3 1.55877e-16 0)
(3 -1.07738e-16 0)
(3 -4.44402e-16 0)
(3 -1.70357e-16 0)
(3 -7.33599e-18 0)
(3 1.10668e-16 0)
(3 -3.41344e-16 0)
(3 -1.39333e-16 0)
(3 3.73196e-16 0)
(3 1.21444e-15 0)
(3 8.10687e-16 0)
(3 2.79776e-16 0)
(3 1.85333e-16 0)
(3 -3.28076e-16 0)
(3 -4.68732e-16 0)
(3 -3.74179e-16 0)
(3 -1.93156e-16 0)
(3 2.81526e-16 0)
(3 5.38121e-16 0)
(3 7.99327e-16 0)
(3 1.35247e-15 0)
(3 1.69689e-15 0)
(3 1.65585e-15 0)
(3 1.59598e-15 0)
(3 1.22833e-15 0)
(3 7.34737e-16 0)
(3 5.25333e-16 0)
(3 7.00053e-17 0)
(3 -5.26506e-16 0)
(3 -2.27759e-15 0)
(3 -3.43247e-15 0)
(3 -2.92885e-15 0)
(3 -1.54352e-15 0)
(3 9.62633e-16 0)
(3 1.66654e-15 0)
(3 1.31042e-15 0)
(3 3.30087e-17 0)
(3 -4.908e-16 0)
(3 -2.01522e-16 0)
(3 7.54146e-16 0)
(3 1.39247e-15 0)
(3 1.81755e-15 0)
(3 1.87476e-15 0)
(3 2.2071e-15 0)
(3 2.90385e-15 0)
(3 1.65169e-16 0)
(3 5.18675e-16 0)
(3 7.39768e-16 0)
(3 3.86075e-16 0)
(3 3.08219e-16 0)
(3 -4.31791e-16 0)
(3 -1.05232e-15 0)
(3 -9.27045e-16 0)
(3 -8.34861e-16 0)
(3 -8.47784e-16 0)
(3 -6.05748e-16 0)
(3 -4.9741e-16 0)
(3 -3.71863e-16 0)
(3 -4.3962e-16 0)
(3 -5.61357e-16 0)
(3 -3.88866e-17 0)
(3 1.34062e-17 0)
(3 1.48575e-16 0)
(3 -1.75091e-16 0)
(3 -4.30851e-17 0)
(3 5.70665e-16 0)
(3 9.96427e-16 0)
(3 1.46455e-15 0)
(3 1.44847e-15 0)
(3 1.52664e-15 0)
(3 9.40267e-16 0)
(3 8.12216e-16 0)
(3 5.25233e-16 0)
(3 1.95092e-16 0)
(3 -2.03331e-16 0)
(3 -1.29985e-16 0)
(3 -5.60361e-16 0)
(3 -1.94073e-15 0)
(3 -2.16021e-15 0)
(3 -1.60188e-15 0)
(3 -1.38274e-15 0)
(3 -8.58411e-16 0)
(3 3.37813e-16 0)
(3 -4.66387e-18 0)
(3 -1.00335e-15 0)
(3 -8.01272e-16 0)
(3 9.97021e-17 0)
(3 1.27554e-15 0)
(3 1.24319e-15 0)
(3 1.41234e-15 0)
(3 1.52407e-15 0)
(3 1.94545e-15 0)
(3 2.54686e-15 0)
(3 2.8024e-17 0)
(3 2.04251e-16 0)
(3 8.30429e-17 0)
(3 -2.20142e-16 0)
(3 -8.48504e-16 0)
(3 -1.59164e-15 0)
(3 -2.39711e-15 0)
(3 -2.17305e-15 0)
(3 -1.37802e-15 0)
(3 -7.53882e-16 0)
(3 -9.32265e-16 0)
(3 -1.52831e-15 0)
(3 -1.68513e-15 0)
(3 -1.14047e-15 0)
(3 -7.84363e-16 0)
(3 -9.00533e-17 0)
(3 5.68137e-16 0)
(3 1.01916e-15 0)
(3 6.06955e-16 0)
(3 1.52346e-16 0)
(3 -3.7201e-16 0)
(3 -4.70518e-16 0)
(3 -7.78662e-16 0)
(3 -1.09215e-16 0)
(3 3.33302e-16 0)
(3 9.9848e-17 0)
(3 -9.81884e-16 0)
(3 -1.45043e-15 0)
(3 -1.21175e-15 0)
(3 -1.47838e-15 0)
(3 -1.30571e-15 0)
(3 -7.77491e-16 0)
(3 -1.03117e-16 0)
(3 -1.31884e-16 0)
(3 -9.34727e-16 0)
(3 -1.65396e-15 0)
(3 -1.60379e-15 0)
(3 -9.96621e-16 0)
(3 -5.55414e-16 0)
(3 9.54262e-17 0)
(3 3.73735e-16 0)
(3 3.84342e-16 0)
(3 5.65887e-16 0)
(3 8.00585e-16 0)
(3 9.42009e-16 0)
(3 1.07325e-15 0)
(3 9.39237e-17 0)
(3 -9.6975e-16 0)
(3 -2.59364e-18 0)
(3 9.44746e-17 0)
(3 -3.08796e-17 0)
(3 -3.88707e-16 0)
(3 -6.69879e-16 0)
(3 -6.54039e-16 0)
(3 -1.07932e-15 0)
(3 -1.7608e-15 0)
(3 -8.95027e-16 0)
(3 -6.92138e-16 0)
(3 -7.40756e-16 0)
(3 -9.82547e-16 0)
(3 -8.20636e-16 0)
(3 -7.3924e-16 0)
(3 -3.87964e-17 0)
(3 3.60505e-16 0)
(3 1.69832e-15 0)
(3 2.02067e-15 0)
(3 1.19257e-15 0)
(3 4.99718e-16 0)
(3 -1.48026e-16 0)
(3 -2.11372e-15 0)
(3 -2.45639e-15 0)
(3 -2.37472e-15 0)
(3 -1.85238e-15 0)
(3 -8.64411e-16 0)
(3 -1.33326e-15 0)
(3 -2.60379e-15 0)
(3 -2.76423e-15 0)
(3 -2.19868e-15 0)
(3 -7.42408e-16 0)
(3 1.05201e-15 0)
(3 1.81686e-15 0)
(3 1.61338e-15 0)
(3 2.71661e-16 0)
(3 -1.03765e-15 0)
(3 -9.60176e-16 0)
(3 -1.08192e-15 0)
(3 -5.0491e-16 0)
(3 7.8202e-17 0)
(3 -4.3063e-16 0)
(3 -4.04455e-16 0)
(3 -4.26577e-16 0)
(3 -2.60896e-16 0)
(3 -6.11365e-16 0)
(3 -4.23406e-16 0)
(3 -4.38622e-16 0)
(3 -2.21734e-15 0)
(3 8.08811e-18 0)
(3 3.39942e-17 0)
(3 3.23384e-16 0)
(3 1.12732e-16 0)
(3 5.25682e-16 0)
(3 7.24849e-16 0)
(3 7.39957e-16 0)
(3 1.92089e-17 0)
(3 -5.21176e-16 0)
(3 -7.16858e-16 0)
(3 -4.02616e-16 0)
(3 1.21409e-16 0)
(3 1.08833e-16 0)
(3 -2.43769e-16 0)
(3 -1.48636e-16 0)
(3 -2.04303e-18 0)
(3 -3.31187e-17 0)
(3 5.22763e-17 0)
(3 -1.72824e-17 0)
(3 1.6126e-16 0)
(3 -5.40878e-16 0)
(3 -9.62921e-16 0)
(3 -1.28623e-15 0)
(3 -2.0364e-15 0)
(3 -1.95467e-15 0)
(3 -1.27531e-15 0)
(3 -1.98779e-16 0)
(3 -9.42046e-17 0)
(3 1.52716e-17 0)
(3 4.15051e-16 0)
(3 1.15732e-15 0)
(3 1.07976e-15 0)
(3 1.67683e-15 0)
(3 2.25376e-15 0)
(3 2.39675e-15 0)
(3 1.90486e-15 0)
(3 1.44171e-15 0)
(3 8.41004e-16 0)
(3 4.86174e-16 0)
(3 -8.2306e-16 0)
(3 -1.33672e-15 0)
(3 -1.22641e-15 0)
(3 -1.26896e-15 0)
(3 -1.0377e-15 0)
(3 -7.74501e-16 0)
(3 -7.98763e-16 0)
(3 -8.6976e-16 0)
(3 -1.67408e-15 0)
(3 -2.53476e-17 0)
(3 -1.59613e-16 0)
(3 -1.42174e-16 0)
(3 1.31234e-16 0)
(3 5.13249e-16 0)
(3 4.744e-16 0)
(3 5.29587e-16 0)
(3 7.01228e-16 0)
(3 6.0932e-16 0)
(3 6.45924e-16 0)
(3 8.1932e-16 0)
(3 6.74012e-16 0)
(3 3.5689e-16 0)
(3 -6.59895e-17 0)
(3 -7.25489e-16 0)
(3 -1.10552e-15 0)
(3 -2.12296e-15 0)
(3 -2.59535e-15 0)
(3 -1.73669e-15 0)
(3 -5.29992e-17 0)
(3 7.59044e-16 0)
(3 1.7632e-15 0)
(3 1.2004e-15 0)
(3 8.94353e-16 0)
(3 6.39579e-16 0)
(3 -4.76056e-16 0)
(3 -5.26389e-16 0)
(3 5.93444e-16 0)
(3 1.95128e-15 0)
(3 2.46145e-15 0)
(3 3.15177e-15 0)
(3 3.11003e-15 0)
(3 3.39716e-15 0)
(3 4.16885e-15 0)
(3 4.74274e-15 0)
(3 5.02348e-15 0)
(3 4.56558e-15 0)
(3 2.08057e-15 0)
(3 -2.662e-16 0)
(3 -5.22755e-16 0)
(3 -2.66017e-16 0)
(3 -1.82754e-16 0)
(3 -3.21855e-17 0)
(3 -7.08389e-16 0)
(3 -8.99637e-16 0)
(3 -1.06771e-15 0)
(3 -1.52132e-15 0)
(3 -1.6279e-15 0)
(3 -9.967e-17 0)
(3 -7.50427e-16 0)
(3 -1.07476e-15 0)
(3 -6.1931e-16 0)
(3 -1.63341e-16 0)
(3 4.32743e-16 0)
(3 1.04447e-15 0)
(3 1.31155e-15 0)
(3 1.61647e-15 0)
(3 1.09176e-15 0)
(3 7.20099e-16 0)
(3 4.68438e-16 0)
(3 3.84691e-16 0)
(3 2.18126e-16 0)
(3 -1.22679e-16 0)
(3 -8.71068e-16 0)
(3 -1.41392e-15 0)
(3 -1.85252e-15 0)
(3 -1.2449e-15 0)
(3 3.22985e-17 0)
(3 2.58936e-15 0)
(3 3.21737e-15 0)
(3 2.41981e-15 0)
(3 1.76202e-15 0)
(3 1.95109e-15 0)
(3 1.73389e-15 0)
(3 1.16314e-15 0)
(3 1.25422e-15 0)
(3 1.60847e-15 0)
(3 2.35573e-15 0)
(3 2.31014e-15 0)
(3 2.80808e-15 0)
(3 3.85496e-15 0)
(3 4.31361e-15 0)
(3 4.14281e-15 0)
(3 3.96173e-15 0)
(3 3.39389e-15 0)
(3 3.73686e-16 0)
(3 -5.93723e-16 0)
(3 -4.38148e-16 0)
(3 1.04939e-15 0)
(3 1.08629e-15 0)
(3 7.05718e-16 0)
(3 -3.68359e-17 0)
(3 -4.59751e-16 0)
(3 -7.57506e-16 0)
(3 -1.02844e-15 0)
(3 -1.25882e-15 0)
(3 1.54083e-17 0)
(3 -4.76321e-16 0)
(3 -3.3674e-16 0)
(3 2.87218e-16 0)
(3 5.0049e-16 0)
(3 8.38028e-16 0)
(3 1.86903e-15 0)
(3 2.32689e-15 0)
(3 1.3108e-15 0)
(3 6.64903e-16 0)
(3 2.75118e-16 0)
(3 -2.27869e-16 0)
(3 -1.56927e-16 0)
(3 1.10977e-16 0)
(3 2.65305e-16 0)
(3 -4.30771e-18 0)
(3 2.60075e-16 0)
(3 5.82552e-16 0)
(3 1.41427e-15 0)
(3 1.77878e-15 0)
(3 1.63417e-15 0)
(3 1.17284e-15 0)
(3 8.19365e-16 0)
(3 4.04719e-16 0)
(3 5.12563e-16 0)
(3 7.91158e-16 0)
(3 1.47594e-15 0)
(3 1.85711e-15 0)
(3 1.69087e-15 0)
(3 1.60852e-15 0)
(3 1.18404e-15 0)
(3 1.59453e-15 0)
(3 1.9986e-15 0)
(3 2.49292e-15 0)
(3 2.58043e-15 0)
(3 2.09449e-15 0)
(3 1.86072e-15 0)
(3 1.63518e-15 0)
(3 1.52734e-15 0)
(3 1.62388e-15 0)
(3 1.50138e-15 0)
(3 1.54465e-15 0)
(3 -1.63507e-16 0)
(3 -5.95009e-16 0)
(3 -7.34915e-16 0)
(3 -1.00063e-15 0)
(3 -1.20642e-15 0)
(3 -1.38611e-15 0)
(3 8.16886e-19 0)
(3 2.05439e-16 0)
(3 7.02996e-16 0)
(3 1.5303e-16 0)
(3 -6.15709e-18 0)
(3 -1.72766e-16 0)
(3 7.19769e-16 0)
(3 1.3675e-15 0)
(3 6.69714e-16 0)
(3 2.13736e-16 0)
(3 -1.73405e-16 0)
(3 1.40659e-17 0)
(3 3.92784e-16 0)
(3 4.23782e-16 0)
(3 8.26974e-16 0)
(3 1.03078e-15 0)
(3 1.69352e-15 0)
(3 2.95377e-15 0)
(3 2.77332e-15 0)
(3 1.73666e-15 0)
(3 2.17755e-16 0)
(3 -2.21382e-16 0)
(3 5.28516e-16 0)
(3 2.49559e-16 0)
(3 -7.78679e-17 0)
(3 3.4341e-16 0)
(3 1.50795e-15 0)
(3 2.17429e-15 0)
(3 2.28514e-15 0)
(3 1.47448e-15 0)
(3 1.02916e-15 0)
(3 3.9267e-16 0)
(3 3.98042e-16 0)
(3 1.28172e-15 0)
(3 1.79645e-15 0)
(3 1.44332e-15 0)
(3 1.35553e-15 0)
(3 1.9238e-15 0)
(3 2.06954e-15 0)
(3 1.07695e-15 0)
(3 6.73556e-16 0)
(3 4.91644e-16 0)
(3 6.59795e-16 0)
(3 2.82657e-16 0)
(3 -9.87066e-16 0)
(3 -1.75874e-15 0)
(3 -1.44257e-15 0)
(3 -8.84284e-16 0)
(3 4.75436e-17 0)
(3 4.95576e-16 0)
(3 -6.46539e-18 0)
(3 -5.53664e-16 0)
(3 -9.94027e-16 0)
(3 -9.06543e-16 0)
(3 -1.26558e-15 0)
(3 -1.0516e-15 0)
(3 -6.64209e-16 0)
(3 -5.51004e-16 0)
(3 -4.21899e-16 0)
(3 2.72409e-16 0)
(3 6.10029e-16 0)
(3 7.57514e-16 0)
(3 7.42073e-16 0)
(3 1.07526e-15 0)
(3 1.33607e-15 0)
(3 1.93085e-15 0)
(3 1.14741e-15 0)
(3 3.61009e-16 0)
(3 1.41368e-16 0)
(3 8.11491e-16 0)
(3 1.655e-15 0)
(3 1.65799e-15 0)
(3 9.54551e-16 0)
(3 1.19639e-15 0)
(3 2.92286e-15 0)
(3 3.35233e-15 0)
(3 2.48389e-15 0)
(3 1.1966e-15 0)
(3 4.33561e-16 0)
(3 -5.53057e-16 0)
(3 4.84883e-16 0)
(3 1.92383e-15 0)
(3 1.07843e-15 0)
(3 5.96198e-16 0)
(3 3.29004e-16 0)
(3 3.26638e-16 0)
(3 2.96486e-16 0)
(3 -4.09975e-16 0)
(3 -8.06051e-16 0)
(3 -4.03326e-16 0)
(3 3.38704e-16 0)
(3 2.15479e-16 0)
(3 -3.23963e-16 0)
(3 -1.04067e-15 0)
(3 -7.66493e-16 0)
(3 -2.58407e-17 0)
(3 1.52406e-16 0)
(3 1.81525e-16 0)
(3 -1.1333e-16 0)
(3 -3.05699e-16 0)
(3 3.94086e-17 0)
(3 9.98654e-17 0)
(3 -5.05146e-16 0)
(3 -1.02877e-15 0)
(3 -8.43786e-16 0)
(3 -2.28592e-16 0)
(3 2.80358e-16 0)
(3 3.92298e-16 0)
(3 1.74653e-16 0)
(3 1.84038e-16 0)
(3 1.63992e-16 0)
(3 9.79073e-17 0)
(3 -1.61621e-16 0)
(3 -8.14429e-16 0)
(3 -1.02642e-16 0)
(3 7.20881e-16 0)
(3 1.1564e-15 0)
(3 1.17958e-15 0)
(3 8.77398e-16 0)
(3 8.14936e-16 0)
(3 1.10196e-15 0)
(3 1.24512e-15 0)
(3 1.51352e-15 0)
(3 1.60921e-15 0)
(3 1.86889e-15 0)
(3 1.61431e-15 0)
(3 7.49995e-16 0)
(3 3.15805e-16 0)
(3 5.14825e-16 0)
(3 5.68837e-16 0)
(3 1.03176e-15 0)
(3 1.57892e-15 0)
(3 1.71019e-15 0)
(3 1.04078e-15 0)
(3 7.30194e-16 0)
(3 7.0236e-16 0)
(3 -1.93798e-16 0)
(3 -8.59941e-16 0)
(3 -2.68693e-16 0)
(3 1.52821e-15 0)
(3 1.05479e-15 0)
(3 -4.66811e-16 0)
(3 -1.45722e-15 0)
(3 -1.61647e-15 0)
(3 -1.05126e-16 0)
(3 -5.8186e-16 0)
(3 -3.67487e-16 0)
(3 2.08209e-16 0)
(3 9.20587e-16 0)
(3 8.60987e-16 0)
(3 1.27333e-15 0)
(3 1.35771e-15 0)
(3 1.05461e-15 0)
(3 6.65345e-16 0)
(3 1.15912e-16 0)
(3 -8.41487e-17 0)
(3 7.53903e-18 0)
(3 5.59158e-16 0)
(3 1.13486e-15 0)
(3 9.22164e-16 0)
(3 2.38589e-16 0)
(3 1.27947e-17 0)
(3 2.9415e-16 0)
(3 1.34005e-15 0)
(3 9.41145e-16 0)
(3 7.36754e-16 0)
(3 1.04164e-15 0)
(3 1.15548e-15 0)
(3 1.48162e-15 0)
(3 1.95157e-15 0)
(3 1.18024e-15 0)
(3 1.06257e-15 0)
(3 1.47347e-15 0)
(3 1.84697e-15 0)
(3 1.33148e-15 0)
(3 7.20931e-16 0)
(3 -2.2605e-16 0)
(3 -7.02561e-16 0)
(3 1.79521e-16 0)
(3 1.22348e-15 0)
(3 1.41325e-15 0)
(3 1.89951e-15 0)
(3 2.15271e-15 0)
(3 1.5193e-15 0)
(3 3.80846e-16 0)
(3 -4.11997e-16 0)
(3 -1.05874e-16 0)
(3 9.03088e-16 0)
(3 2.38109e-16 0)
(3 -7.88611e-16 0)
(3 -2.43929e-15 0)
(3 -2.11282e-15 0)
(3 -2.37019e-17 0)
(3 -3.40813e-16 0)
(3 -1.45105e-16 0)
(3 8.39236e-16 0)
(3 1.10877e-15 0)
(3 7.82486e-16 0)
(3 6.52628e-16 0)
(3 7.78918e-16 0)
(3 5.29207e-16 0)
(3 -2.59671e-16 0)
(3 -2.97871e-16 0)
(3 -1.67954e-16 0)
(3 6.15243e-16 0)
(3 1.53311e-15 0)
(3 2.57011e-15 0)
(3 2.51474e-15 0)
(3 1.70303e-15 0)
(3 1.36981e-15 0)
(3 5.71709e-16 0)
(3 2.72772e-16 0)
(3 4.72905e-16 0)
(3 1.26935e-15 0)
(3 2.14031e-15 0)
(3 2.33563e-15 0)
(3 2.67997e-15 0)
(3 2.47598e-15 0)
(3 1.94116e-15 0)
(3 1.76214e-15 0)
(3 1.80363e-15 0)
(3 1.66174e-15 0)
(3 5.71563e-16 0)
(3 6.3006e-16 0)
(3 2.79561e-16 0)
(3 -6.717e-16 0)
(3 -1.16211e-15 0)
(3 -1.24745e-15 0)
(3 -8.52704e-16 0)
(3 -4.01862e-16 0)
(3 -1.6842e-16 0)
(3 -2.55795e-16 0)
(3 -8.37957e-16 0)
(3 -9.15961e-16 0)
(3 -7.83599e-16 0)
(3 -1.04357e-15 0)
(3 -1.55932e-15 0)
(3 -8.67789e-16 0)
(3 -1.1162e-15 0)
(3 -1.00042e-15 0)
(3 -1.84506e-16 0)
(3 -9.63718e-17 0)
(3 1.48124e-16 0)
(3 3.90018e-17 0)
(3 1.10804e-16 0)
(3 5.46109e-16 0)
(3 3.75028e-16 0)
(3 1.94003e-18 0)
(3 -5.62675e-16 0)
(3 -1.04945e-15 0)
(3 -7.09276e-16 0)
(3 -4.91183e-16 0)
(3 1.90518e-16 0)
(3 5.81655e-16 0)
(3 8.36327e-16 0)
(3 1.0986e-15 0)
(3 1.226e-15 0)
(3 7.37122e-16 0)
(3 -1.61258e-16 0)
(3 -2.95177e-16 0)
(3 -8.91929e-17 0)
(3 6.66925e-16 0)
(3 1.96238e-15 0)
(3 2.70685e-15 0)
(3 2.61881e-15 0)
(3 2.38236e-15 0)
(3 1.45468e-15 0)
(3 1.35279e-15 0)
(3 1.17626e-15 0)
(3 8.15939e-16 0)
(3 1.60849e-15 0)
(3 2.20883e-15 0)
(3 2.12775e-15 0)
(3 -1.16213e-16 0)
(3 -1.43725e-15 0)
(3 -2.43492e-15 0)
(3 -2.07551e-15 0)
(3 -1.77157e-15 0)
(3 -1.57012e-15 0)
(3 -1.50238e-15 0)
(3 -1.13679e-15 0)
(3 -1.12736e-15 0)
(3 -1.28236e-15 0)
(3 -1.74401e-15 0)
(3 -4.98597e-16 0)
(3 7.61423e-16 0)
(3 1.44049e-15 0)
(3 1.21894e-15 0)
(3 5.36448e-17 0)
(3 3.04931e-16 0)
(3 2.72904e-16 0)
(3 -6.81449e-16 0)
(3 -8.88865e-16 0)
(3 -6.70051e-16 0)
(3 -5.53048e-16 0)
(3 -7.39328e-16 0)
(3 -8.50144e-16 0)
(3 -7.18922e-16 0)
(3 -1.31132e-15 0)
(3 -1.14776e-15 0)
(3 -6.57032e-16 0)
(3 -7.40343e-16 0)
(3 -8.99355e-16 0)
(3 -3.1014e-16 0)