/*--------------------------------*- C++ -*----------------------------------*\
  =========                 |
  \\      /  F ield         | OpenFOAM: The Open Source CFD Toolbox
   \\    /   O peration     | Website:  https://openfoam.org
    \\  /    A nd           | Version:  7
     \\/     M anipulation  |
\*---------------------------------------------------------------------------*/
FoamFile
{
    version     2.0;
    format      ascii;
    class       volVectorField;
    location    "1";
    object      U;
}
// * * * * * * * * * * * * * * * * * * * * * * * * * * * * * * * * * * * * * //

dimensions      [0 1 -1 0 0 0 0];

internalField   nonuniform List<vector> 
73728
(
(3 8.88483e-17 0)
(3 3.4708e-16 0)
(3 3.261e-16 0)
(3 3.19758e-16 0)
(3 -3.97655e-16 0)
(3 -6.7484e-16 0)
(3 -2.84537e-16 0)
(3 7.69734e-16 0)
(3 8.70931e-16 0)
(3 6.43379e-16 0)
(3 3.89781e-16 0)
(3 -1.33196e-16 0)
(3 -3.56233e-16 0)
(3 -1.64379e-16 0)
(3 2.21797e-16 0)
(3 7.33513e-16 0)
(3 8.41214e-16 0)
(3 7.45823e-16 0)
(3 7.69673e-16 0)
(3 7.01657e-16 0)
(3 9.4797e-16 0)
(3 8.03845e-16 0)
(3 6.0132e-16 0)
(3 4.48006e-16 0)
(3 -5.34907e-17 0)
(3 -7.58993e-16 0)
(3 -2.92892e-16 0)
(3 -2.03296e-16 0)
(3 -2.7321e-16 0)
(3 -2.63881e-16 0)
(3 -2.0938e-16 0)
(3 -4.55952e-17 0)
(3 -1.59625e-16 0)
(3 -3.81941e-16 0)
(3 2.05842e-16 0)
(3 7.22057e-16 0)
(3 1.70711e-15 0)
(3 3.21481e-15 0)
(3 4.82957e-15 0)
(3 4.45991e-15 0)
(3 3.97746e-15 0)
(3 3.67371e-15 0)
(3 3.61542e-15 0)
(3 3.87741e-15 0)
(3 4.01341e-15 0)
(3 2.95734e-15 0)
(3 2.36682e-15 0)
(3 1.57169e-15 0)
(3 5.96978e-16 0)
(3 5.69779e-17 0)
(3 2.97809e-16 0)
(3 6.63184e-16 0)
(3 5.74376e-16 0)
(3 5.18586e-16 0)
(3 1.19289e-16 0)
(3 -3.68232e-16 0)
(3 -7.40759e-16 0)
(3 -1.47286e-16 0)
(3 5.79682e-16 0)
(3 5.82573e-16 0)
(3 2.78144e-16 0)
(3 5.44742e-16 0)
(3 1.46267e-15 0)
(3 2.11752e-15 0)
(3 1.52626e-15 0)
(3 9.63368e-16 0)
(3 1.08876e-15 0)
(3 1.26559e-15 0)
(3 1.04757e-15 0)
(3 4.83874e-16 0)
(3 3.32464e-16 0)
(3 3.92393e-16 0)
(3 6.92374e-16 0)
(3 7.74037e-16 0)
(3 8.05339e-16 0)
(3 5.02739e-16 0)
(3 6.34646e-16 0)
(3 -5.56901e-16 0)
(3 -9.6518e-16 0)
(3 -1.74353e-15 0)
(3 -2.08872e-15 0)
(3 -1.37529e-15 0)
(3 -4.6878e-16 0)
(3 7.53883e-16 0)
(3 1.39313e-15 0)
(3 2.34362e-15 0)
(3 2.37495e-15 0)
(3 1.49399e-15 0)
(3 2.74239e-16 0)
(3 6.36336e-17 0)
(3 1.79766e-16 0)
(3 -1.30285e-15 0)
(3 -1.79439e-15 0)
(3 -1.01693e-15 0)
(3 -7.21651e-16 0)
(3 -5.87871e-16 0)
(3 -1.31099e-16 0)
(3 9.56089e-16 0)
(3 8.71091e-16 0)
(3 9.34502e-16 0)
(3 -2.70835e-16 0)
(3 -1.43234e-16 0)
(3 8.61339e-17 0)
(3 6.80512e-16 0)
(3 1.02679e-15 0)
(3 5.54695e-16 0)
(3 6.16692e-16 0)
(3 7.49676e-18 0)
(3 -7.45521e-16 0)
(3 -3.73023e-16 0)
(3 -7.296e-17 0)
(3 6.03541e-16 0)
(3 1.57831e-15 0)
(3 1.60788e-15 0)
(3 1.26246e-15 0)
(3 1.31472e-15 0)
(3 1.90627e-15 0)
(3 1.90579e-15 0)
(3 1.63805e-15 0)
(3 9.3572e-16 0)
(3 2.61711e-16 0)
(3 -3.50041e-16 0)
(3 2.91993e-18 0)
(3 1.7044e-16 0)
(3 2.27112e-16 0)
(3 6.97841e-16 0)
(3 5.71441e-16 0)
(3 5.09907e-16 0)
(3 5.10202e-16 0)
(3 7.50105e-16 0)
(3 1.52236e-15 0)
(3 2.55531e-15 0)
(3 4.62415e-15 0)
(3 6.22695e-15 0)
(3 6.36275e-15 0)
(3 6.51554e-15 0)
(3 5.89176e-15 0)
(3 4.8821e-15 0)
(3 4.87294e-15 0)
(3 4.38229e-15 0)
(3 3.51825e-15 0)
(3 1.79367e-15 0)
(3 5.50612e-16 0)
(3 -1.45735e-15 0)
(3 -2.80151e-15 0)
(3 -2.39083e-15 0)
(3 -1.08639e-15 0)
(3 -7.99559e-16 0)
(3 -1.54369e-15 0)
(3 -1.09789e-15 0)
(3 7.76935e-16 0)
(3 3.02387e-16 0)
(3 1.61297e-16 0)
(3 1.24597e-15 0)
(3 1.76186e-15 0)
(3 8.27565e-16 0)
(3 6.38593e-16 0)
(3 8.51953e-16 0)
(3 1.57294e-15 0)
(3 2.22753e-15 0)
(3 2.59633e-15 0)
(3 2.40901e-15 0)
(3 2.25792e-15 0)
(3 2.04919e-15 0)
(3 1.89736e-15 0)
(3 1.75971e-15 0)
(3 1.83109e-15 0)
(3 1.93177e-15 0)
(3 2.07543e-15 0)
(3 2.35904e-15 0)
(3 2.58864e-15 0)
(3 1.87053e-15 0)
(3 1.80428e-15 0)
(3 3.47132e-16 0)
(3 -4.09283e-16 0)
(3 -5.25189e-16 0)
(3 -6.33865e-16 0)
(3 -4.73019e-16 0)
(3 2.11453e-16 0)
(3 1.89344e-15 0)
(3 3.85193e-15 0)
(3 5.57005e-15 0)
(3 4.32372e-15 0)
(3 2.19925e-15 0)
(3 -3.98531e-16 0)
(3 -1.64893e-15 0)
(3 -2.64956e-15 0)
(3 -3.84501e-15 0)
(3 -3.71953e-15 0)
(3 -2.91842e-15 0)
(3 -2.63871e-15 0)
(3 -2.05495e-15 0)
(3 -6.84292e-17 0)
(3 2.04377e-16 0)
(3 7.36128e-16 0)
(3 1.13972e-15 0)
(3 1.21586e-15 0)
(3 1.26965e-15 0)
(3 9.31833e-16 0)
(3 9.76137e-16 0)
(3 1.11684e-15 0)
(3 1.07063e-15 0)
(3 9.82788e-16 0)
(3 1.34421e-15 0)
(3 1.16849e-15 0)
(3 7.82601e-16 0)
(3 3.91604e-16 0)
(3 1.16236e-16 0)
(3 2.61382e-17 0)
(3 -2.53449e-16 0)
(3 -3.67418e-16 0)
(3 -2.41456e-16 0)
(3 -2.26423e-16 0)
(3 -2.59009e-16 0)
(3 -8.67877e-16 0)
(3 -1.82306e-15 0)
(3 -2.07822e-15 0)
(3 -1.12158e-15 0)
(3 -7.38863e-16 0)
(3 2.06482e-16 0)
(3 6.71143e-16 0)
(3 9.98483e-16 0)
(3 8.84019e-16 0)
(3 2.78415e-16 0)
(3 -6.00281e-18 0)
(3 1.59262e-16 0)
(3 1.89748e-16 0)
(3 1.06455e-16 0)
(3 8.6431e-16 0)
(3 2.62418e-15 0)
(3 3.41222e-15 0)
(3 3.77652e-15 0)
(3 3.72422e-15 0)
(3 3.76878e-15 0)
(3 3.81835e-15 0)
(3 3.49556e-15 0)
(3 1.91367e-15 0)
(3 3.13308e-16 0)
(3 4.34449e-16 0)
(3 1.19637e-15 0)
(3 2.72235e-15 0)
(3 2.58357e-15 0)
(3 5.4853e-16 0)
(3 -6.65373e-16 0)
(3 -1.00666e-15 0)
(3 -8.68229e-16 0)
(3 -4.70336e-16 0)
(3 -3.80141e-16 0)
(3 -6.50654e-16 0)
(3 -1.40482e-15 0)
(3 -2.12846e-15 0)
(3 -3.9716e-15 0)
(3 -3.57239e-15 0)
(3 -3.29461e-15 0)
(3 -2.4997e-15 0)
(3 -6.88177e-16 0)
(3 1.51039e-15 0)
(3 2.39304e-15 0)
(3 1.16554e-15 0)
(3 -2.06381e-16 0)
(3 -4.24702e-16 0)
(3 5.41575e-17 0)
(3 9.17281e-16 0)
(3 1.21192e-15 0)
(3 7.54733e-16 0)
(3 -5.20273e-17 0)
(3 -3.929e-16 0)
(3 -6.37112e-16 0)
(3 -1.09738e-15 0)
(3 -1.39496e-15 0)
(3 -1.24447e-15 0)
(3 -1.85222e-17 0)
(3 3.85038e-17 0)
(3 -2.10076e-16 0)
(3 -2.18665e-16 0)
(3 8.61483e-16 0)
(3 2.53859e-15 0)
(3 3.39506e-15 0)
(3 3.97682e-15 0)
(3 3.66216e-15 0)
(3 2.9777e-15 0)
(3 1.47687e-15 0)
(3 5.17657e-16 0)
(3 -1.83735e-15 0)
(3 -2.67862e-15 0)
(3 -2.82563e-15 0)
(3 -3.13384e-15 0)
(3 -2.45512e-15 0)
(3 -5.30881e-17 0)
(3 -2.218e-16 0)
(3 -1.96355e-16 0)
(3 2.55279e-16 0)
(3 1.38132e-15 0)
(3 1.09821e-15 0)
(3 1.31982e-15 0)
(3 7.45844e-16 0)
(3 1.06326e-15 0)
(3 2.08701e-15 0)
(3 2.30314e-15 0)
(3 2.37312e-15 0)
(3 2.40435e-15 0)
(3 2.25181e-15 0)
(3 1.78927e-15 0)
(3 1.20204e-15 0)
(3 3.95041e-16 0)
(3 -2.1331e-16 0)
(3 -3.55868e-16 0)
(3 -1.17529e-15 0)
(3 -1.81133e-15 0)
(3 -2.65398e-15 0)
(3 -3.82477e-15 0)
(3 -4.41201e-15 0)
(3 -3.5037e-15 0)
(3 -2.04826e-15 0)
(3 -1.31475e-16 0)
(3 1.46285e-15 0)
(3 1.92695e-15 0)
(3 2.1712e-15 0)
(3 1.94602e-15 0)
(3 1.28138e-15 0)
(3 3.38111e-16 0)
(3 -1.04255e-16 0)
(3 -1.1978e-15 0)
(3 -1.00761e-15 0)
(3 -2.40366e-16 0)
(3 8.53654e-16 0)
(3 2.35686e-15 0)
(3 2.53195e-15 0)
(3 1.91084e-15 0)
(3 1.82321e-15 0)
(3 1.16319e-15 0)
(3 2.65216e-16 0)
(3 -8.62034e-17 0)
(3 1.56731e-16 0)
(3 5.64614e-16 0)
(3 1.94997e-15 0)
(3 5.03404e-15 0)
(3 5.88088e-15 0)
(3 5.7918e-15 0)
(3 2.9672e-15 0)
(3 1.64269e-15 0)
(3 1.20882e-15 0)
(3 1.11115e-15 0)
(3 1.696e-15 0)
(3 1.69479e-15 0)
(3 -2.01763e-16 0)
(3 -1.50432e-15 0)
(3 -2.35509e-15 0)
(3 -2.34639e-15 0)
(3 -2.08052e-15 0)
(3 -9.49564e-16 0)
(3 -7.00997e-16 0)
(3 -6.67165e-16 0)
(3 -8.25441e-16 0)
(3 -5.66555e-16 0)
(3 -6.16556e-16 0)
(3 -1.84825e-15 0)
(3 -3.02101e-15 0)
(3 -2.60715e-15 0)
(3 -2.52234e-15 0)
(3 -2.66246e-15 0)
(3 -3.25607e-15 0)
(3 -4.13389e-15 0)
(3 -3.94091e-15 0)
(3 -4.25864e-15 0)
(3 -4.16338e-15 0)
(3 -3.96562e-15 0)
(3 -2.93925e-15 0)
(3 -2.42517e-15 0)
(3 -1.91057e-15 0)
(3 -1.76259e-15 0)
(3 -1.41426e-15 0)
(3 8.35608e-17 0)
(3 2.34326e-15 0)
(3 3.98016e-15 0)
(3 5.32712e-15 0)
(3 5.28372e-15 0)
(3 4.63276e-15 0)
(3 3.5997e-15 0)
(3 2.54139e-15 0)
(3 1.96993e-15 0)
(3 1.18258e-15 0)
(3 2.37171e-15 0)
(3 8.49953e-16 0)
(3 -1.38138e-16 0)
(3 -7.99072e-17 0)
(3 -2.74518e-17 0)
(3 -3.54424e-17 0)
(3 -2.39845e-16 0)
(3 -2.12378e-16 0)
(3 -2.39664e-16 0)
(3 -2.80773e-16 0)
(3 -2.50763e-16 0)
(3 5.83825e-16 0)
(3 8.42881e-16 0)
(3 3.59025e-16 0)
(3 3.2558e-16 0)
(3 3.29154e-16 0)
(3 3.04654e-16 0)
(3 6.74322e-16 0)
(3 3.22645e-16 0)
(3 -6.78496e-17 0)
(3 5.52749e-17 0)
(3 -3.29037e-17 0)
(3 -4.29856e-16 0)
(3 -7.38459e-16 0)
(3 -6.48703e-16 0)
(3 2.23189e-16 0)
(3 7.64521e-16 0)
(3 1.3472e-15 0)
(3 1.30291e-15 0)
(3 1.84654e-15 0)
(3 2.6388e-15 0)
(3 2.58828e-15 0)
(3 2.09319e-15 0)
(3 6.53117e-16 0)
(3 -8.72143e-16 0)
(3 -6.85851e-16 0)
(3 -2.22029e-16 0)
(3 9.00096e-16 0)
(3 1.35237e-15 0)
(3 8.45822e-16 0)
(3 7.09433e-16 0)
(3 3.48195e-17 0)
(3 6.51385e-16 0)
(3 -1.89851e-17 0)
(3 -1.64395e-15 0)
(3 -1.17562e-15 0)
(3 -4.29e-16 0)
(3 1.50616e-15 0)
(3 1.89486e-15 0)
(3 2.07401e-15 0)
(3 2.80378e-15 0)
(3 4.07066e-15 0)
(3 4.0498e-15 0)
(3 3.40909e-15 0)
(3 3.48883e-15 0)
(3 2.14193e-15 0)
(3 2.06556e-15 0)
(3 3.30633e-15 0)
(3 2.41319e-15 0)
(3 7.96955e-16 0)
(3 -1.75864e-16 0)
(3 -1.04336e-15 0)
(3 -1.04309e-15 0)
(3 -8.25635e-16 0)
(3 -4.86575e-16 0)
(3 -8.22143e-16 0)
(3 -9.56892e-16 0)
(3 -1.63209e-15 0)
(3 -2.25841e-15 0)
(3 -2.43707e-15 0)
(3 -3.67909e-15 0)
(3 -4.35318e-15 0)
(3 -4.5621e-15 0)
(3 -4.70131e-15 0)
(3 -4.83292e-15 0)
(3 -4.9667e-15 0)
(3 -4.84722e-15 0)
(3 -5.00054e-15 0)
(3 -4.3494e-15 0)
(3 -3.76538e-15 0)
(3 -3.167e-15 0)
(3 -3.05102e-15 0)
(3 -2.72735e-15 0)
(3 -1.83361e-15 0)
(3 -1.39007e-15 0)
(3 -1.54741e-15 0)
(3 -1.35801e-15 0)
(3 -3.52331e-16 0)
(3 4.72667e-16 0)
(3 1.45239e-15 0)
(3 2.61244e-15 0)
(3 2.78677e-15 0)
(3 2.31774e-15 0)
(3 2.93425e-15 0)
(3 3.361e-15 0)
(3 3.42811e-15 0)
(3 4.05163e-15 0)
(3 3.28006e-15 0)
(3 1.06162e-17 0)
(3 2.50921e-16 0)
(3 7.99723e-16 0)
(3 -2.51012e-17 0)
(3 -4.18743e-16 0)
(3 -3.95753e-16 0)
(3 -4.77904e-16 0)
(3 -3.35688e-17 0)
(3 -9.24785e-16 0)
(3 -1.21883e-15 0)
(3 -1.31658e-15 0)
(3 -1.67381e-15 0)
(3 -1.4605e-15 0)
(3 -1.66578e-15 0)
(3 -1.97653e-15 0)
(3 -1.78916e-15 0)
(3 -9.39503e-16 0)
(3 4.10594e-16 0)
(3 1.43263e-15 0)
(3 1.71666e-15 0)
(3 1.72316e-15 0)
(3 1.80276e-15 0)
(3 1.86002e-15 0)
(3 2.00738e-15 0)
(3 1.64391e-15 0)
(3 1.35395e-15 0)
(3 5.52922e-16 0)
(3 -3.53668e-16 0)
(3 -7.13811e-17 0)
(3 -6.15912e-16 0)
(3 -5.41173e-16 0)
(3 -3.03832e-16 0)
(3 3.16604e-16 0)
(3 1.4329e-15 0)
(3 2.22434e-15 0)
(3 2.64252e-15 0)
(3 2.27126e-15 0)
(3 9.35583e-16 0)
(3 -2.21665e-16 0)
(3 -7.67826e-16 0)
(3 -6.05794e-16 0)
(3 -4.57259e-16 0)
(3 3.77575e-17 0)
(3 2.48039e-16 0)
(3 1.23982e-15 0)
(3 2.04765e-15 0)
(3 2.57376e-15 0)
(3 9.74136e-16 0)
(3 9.98201e-17 0)
(3 1.52236e-16 0)
(3 3.7072e-16 0)
(3 8.85838e-16 0)
(3 2.17427e-15 0)
(3 3.01478e-15 0)
(3 3.15479e-15 0)
(3 2.63136e-15 0)
(3 2.87849e-15 0)
(3 3.0645e-15 0)
(3 3.31069e-15 0)
(3 2.80824e-15 0)
(3 2.09169e-15 0)
(3 3.83255e-16 0)
(3 -1.11915e-16 0)
(3 -2.41892e-16 0)
(3 -6.15095e-16 0)
(3 -1.40601e-15 0)
(3 -2.3806e-15 0)
(3 -4.32189e-15 0)
(3 -4.59888e-15 0)
(3 -4.558e-15 0)
(3 -4.99313e-15 0)
(3 -5.07028e-15 0)
(3 -5.33808e-15 0)
(3 -4.68794e-15 0)
(3 -3.71733e-15 0)
(3 -2.10651e-15 0)
(3 -1.40984e-15 0)
(3 -1.59008e-15 0)
(3 -1.95093e-15 0)
(3 -2.04397e-15 0)
(3 -2.21236e-15 0)
(3 -2.44705e-15 0)
(3 -2.51745e-15 0)
(3 -3.1637e-15 0)
(3 -4.79206e-15 0)
(3 -5.15327e-15 0)
(3 -3.71079e-15 0)
(3 -2.50448e-15 0)
(3 -1.55937e-15 0)
(3 -1.97114e-16 0)
(3 2.29941e-15 0)
(3 3.04161e-15 0)
(3 2.94996e-15 0)
(3 3.44421e-15 0)
(3 4.54978e-15 0)
(3 4.78924e-15 0)
(3 5.13738e-16 0)
(3 3.10346e-16 0)
(3 2.08668e-16 0)
(3 -2.47032e-16 0)
(3 -4.17637e-16 0)
(3 -4.83017e-16 0)
(3 -1.51972e-16 0)
(3 7.56507e-17 0)
(3 -1.01866e-15 0)
(3 -1.80522e-15 0)
(3 -1.57858e-15 0)
(3 -5.41882e-16 0)
(3 -1.19208e-16 0)
(3 -3.63065e-16 0)
(3 -7.1178e-16 0)
(3 -8.74596e-16 0)
(3 -7.4388e-16 0)
(3 -5.30224e-17 0)
(3 4.55605e-16 0)
(3 5.25731e-16 0)
(3 5.40639e-16 0)
(3 7.5625e-16 0)
(3 6.80011e-16 0)
(3 6.16821e-16 0)
(3 4.8925e-17 0)
(3 -7.99987e-16 0)
(3 -1.17637e-15 0)
(3 -1.42147e-15 0)
(3 -1.61639e-15 0)
(3 -1.62466e-15 0)
(3 -1.61378e-15 0)
(3 -6.74548e-16 0)
(3 1.22367e-15 0)
(3 1.44571e-15 0)
(3 9.89782e-16 0)
(3 6.04952e-16 0)
(3 5.44624e-17 0)
(3 -3.23581e-16 0)
(3 -8.29992e-16 0)
(3 -1.89057e-15 0)
(3 -2.07459e-15 0)
(3 -1.67554e-15 0)
(3 -2.94718e-16 0)
(3 9.0432e-16 0)
(3 4.1199e-16 0)
(3 -2.54743e-16 0)
(3 -2.9915e-16 0)
(3 -4.04347e-16 0)
(3 -4.22118e-16 0)
(3 -1.01053e-15 0)
(3 -1.01877e-15 0)
(3 -2.24316e-16 0)
(3 -1.6861e-16 0)
(3 9.15017e-16 0)
(3 1.72819e-15 0)
(3 1.92683e-15 0)
(3 2.22176e-15 0)
(3 1.75418e-15 0)
(3 2.05203e-15 0)
(3 3.06375e-15 0)
(3 2.98045e-15 0)
(3 2.59517e-15 0)
(3 1.29465e-15 0)
(3 -3.23804e-16 0)
(3 -8.53279e-16 0)
(3 -1.90188e-15 0)
(3 -3.27374e-15 0)
(3 -4.33331e-15 0)
(3 -4.2025e-15 0)
(3 -4.46745e-15 0)
(3 -4.5785e-15 0)
(3 -4.43986e-15 0)
(3 -3.61739e-15 0)
(3 -2.56616e-15 0)
(3 -1.05084e-15 0)
(3 -7.53993e-16 0)
(3 -3.46396e-16 0)
(3 -1.51768e-15 0)
(3 -2.26929e-15 0)
(3 -3.17887e-15 0)
(3 -3.90898e-15 0)
(3 -4.52251e-15 0)
(3 -4.80559e-15 0)
(3 -4.80829e-15 0)
(3 -4.62855e-15 0)
(3 -5.72061e-15 0)
(3 -4.29036e-15 0)
(3 -1.22884e-15 0)
(3 -6.8073e-16 0)
(3 -1.40426e-15 0)
(3 -9.67278e-16 0)
(3 8.53647e-18 0)
(3 -2.87273e-16 0)
(3 1.4594e-15 0)
(3 3.54919e-15 0)
(3 5.6726e-15 0)
(3 1.54013e-16 0)
(3 -5.25426e-17 0)
(3 -1.01986e-15 0)
(3 -8.1392e-16 0)
(3 -2.43657e-16 0)
(3 -2.31541e-16 0)
(3 -5.20734e-17 0)
(3 4.1559e-17 0)
(3 4.7701e-16 0)
(3 -1.85632e-16 0)
(3 -1.52744e-16 0)
(3 8.25143e-16 0)
(3 3.20986e-16 0)
(3 -5.15159e-16 0)
(3 -2.75653e-16 0)
(3 -1.4109e-16 0)
(3 -2.6002e-16 0)
(3 9.3421e-17 0)
(3 2.07567e-16 0)
(3 1.00039e-15 0)
(3 1.07127e-15 0)
(3 6.3642e-16 0)
(3 1.56251e-16 0)
(3 1.98205e-16 0)
(3 -7.62418e-16 0)
(3 -5.27869e-16 0)
(3 -3.30524e-16 0)
(3 8.87469e-17 0)
(3 -1.50956e-16 0)
(3 -2.90777e-16 0)
(3 -5.30603e-16 0)
(3 -3.61774e-16 0)
(3 -4.22104e-16 0)
(3 -4.90893e-16 0)
(3 -5.73239e-16 0)
(3 -6.87685e-16 0)
(3 -1.22401e-15 0)
(3 -1.34535e-15 0)
(3 -1.64998e-15 0)
(3 -1.46581e-15 0)
(3 -1.19655e-15 0)
(3 -1.13456e-15 0)
(3 -8.4088e-16 0)
(3 -8.54439e-16 0)
(3 3.60842e-17 0)
(3 1.28884e-16 0)
(3 3.50153e-16 0)
(3 6.10432e-16 0)
(3 2.65918e-16 0)
(3 -1.69929e-16 0)
(3 1.1731e-16 0)
(3 -8.69712e-16 0)
(3 -1.418e-15 0)
(3 -1.63801e-15 0)
(3 -6.92029e-17 0)
(3 8.70343e-16 0)
(3 3.87673e-16 0)
(3 -6.25687e-16 0)
(3 -1.77838e-15 0)
(3 -2.48347e-15 0)
(3 -2.08477e-15 0)
(3 -1.09152e-15 0)
(3 -1.01623e-15 0)
(3 -1.7181e-15 0)
(3 -2.16774e-15 0)
(3 -3.82778e-15 0)
(3 -5.53561e-15 0)
(3 -5.44786e-15 0)
(3 -5.91936e-15 0)
(3 -5.84814e-15 0)
(3 -4.99695e-15 0)
(3 -3.397e-15 0)
(3 -2.45804e-15 0)
(3 -2.58029e-15 0)
(3 -2.19791e-15 0)
(3 -3.8675e-15 0)
(3 -4.54611e-15 0)
(3 -3.97598e-15 0)
(3 -3.32866e-15 0)
(3 -3.39868e-15 0)
(3 -3.07597e-15 0)
(3 -2.23478e-15 0)
(3 -8.72455e-16 0)
(3 1.19319e-17 0)
(3 1.27854e-15 0)
(3 1.42467e-15 0)
(3 1.74687e-15 0)
(3 3.0276e-15 0)
(3 3.89836e-15 0)
(3 2.25164e-15 0)
(3 -8.53497e-17 0)
(3 -8.09882e-16 0)
(3 -1.28397e-15 0)
(3 -8.30141e-16 0)
(3 1.8117e-16 0)
(3 1.48566e-15 0)
(3 -1.00201e-16 0)
(3 2.94865e-16 0)
(3 1.49674e-16 0)
(3 5.6252e-17 0)
(3 5.51127e-17 0)
(3 1.35946e-16 0)
(3 -2.81935e-17 0)
(3 1.73183e-16 0)
(3 7.29087e-16 0)
(3 1.47249e-15 0)
(3 1.5031e-15 0)
(3 4.5771e-16 0)
(3 2.63121e-17 0)
(3 2.18077e-16 0)
(3 7.63709e-16 0)
(3 1.026e-15 0)
(3 1.05903e-15 0)
(3 1.09434e-15 0)
(3 1.58481e-15 0)
(3 2.38619e-15 0)
(3 2.52966e-15 0)
(3 2.3289e-15 0)
(3 2.71722e-15 0)
(3 2.88376e-15 0)
(3 3.06031e-15 0)
(3 3.69771e-15 0)
(3 3.74738e-15 0)
(3 2.73392e-15 0)
(3 1.04848e-15 0)
(3 -2.14997e-16 0)
(3 7.01502e-16 0)
(3 6.44112e-16 0)
(3 3.46262e-16 0)
(3 -6.23274e-16 0)
(3 -6.36229e-16 0)
(3 -5.78888e-16 0)
(3 -2.98476e-16 0)
(3 6.25507e-16 0)
(3 1.50433e-15 0)
(3 3.06461e-15 0)
(3 3.0687e-15 0)
(3 2.39109e-15 0)
(3 1.3867e-15 0)
(3 2.5518e-16 0)
(3 6.01621e-16 0)
(3 9.11803e-16 0)
(3 8.46562e-16 0)
(3 6.05933e-16 0)
(3 6.36573e-16 0)
(3 1.29489e-15 0)
(3 2.56145e-15 0)
(3 2.20642e-15 0)
(3 1.31441e-15 0)
(3 4.82087e-16 0)
(3 -6.80921e-16 0)
(3 -1.68106e-15 0)
(3 -9.89926e-16 0)
(3 -2.62101e-15 0)
(3 -5.53667e-15 0)
(3 -6.37251e-15 0)
(3 -6.1206e-15 0)
(3 -5.41901e-15 0)
(3 -5.22188e-15 0)
(3 -5.27419e-15 0)
(3 -5.55791e-15 0)
(3 -5.35982e-15 0)
(3 -5.21323e-15 0)
(3 -4.66546e-15 0)
(3 -5.3058e-15 0)
(3 -5.23283e-15 0)
(3 -4.7034e-15 0)
(3 -4.31263e-15 0)
(3 -3.78773e-15 0)
(3 -3.81329e-15 0)
(3 -4.46235e-15 0)
(3 -4.25922e-15 0)
(3 -4.44459e-15 0)
(3 -4.01084e-15 0)
(3 -2.74097e-15 0)
(3 -1.30839e-15 0)
(3 2.31395e-16 0)
(3 8.24374e-16 0)
(3 1.81755e-15 0)
(3 1.42323e-15 0)
(3 6.641e-16 0)
(3 2.06417e-15 0)
(3 3.18055e-15 0)
(3 3.83701e-15 0)
(3 2.68668e-15 0)
(3 1.89015e-15 0)
(3 -3.89126e-17 0)
(3 -4.02357e-16 0)
(3 -1.77252e-16 0)
(3 -5.41986e-17 0)
(3 5.98585e-16 0)
(3 1.76127e-15 0)
(3 5.94254e-17 0)
(3 -1.51589e-16 0)
(3 1.06238e-16 0)
(3 -1.7653e-16 0)
(3 -6.05621e-16 0)
(3 -1.29866e-15 0)
(3 -1.65121e-15 0)
(3 -1.63507e-15 0)
(3 -8.92297e-16 0)
(3 2.47088e-16 0)
(3 1.49166e-15 0)
(3 1.48331e-15 0)
(3 1.5752e-15 0)
(3 2.30582e-15 0)
(3 2.61946e-15 0)
(3 2.02646e-15 0)
(3 1.67088e-15 0)
(3 1.35077e-15 0)
(3 1.34311e-15 0)
(3 1.51761e-15 0)
(3 1.65614e-15 0)
(3 2.63524e-15 0)
(3 3.7686e-15 0)
(3 5.98757e-15 0)
(3 6.96768e-15 0)
(3 7.33825e-15 0)
(3 5.97432e-15 0)
(3 4.94374e-15 0)
(3 3.23224e-15 0)
(3 3.05542e-15 0)
(3 3.2821e-15 0)
(3 2.97823e-15 0)
(3 1.70892e-15 0)
(3 6.14459e-16 0)
(3 -2.21297e-16 0)
(3 -3.11034e-16 0)
(3 -1.17934e-16 0)
(3 1.23205e-15 0)
(3 2.12982e-15 0)
(3 2.46423e-15 0)
(3 2.58988e-15 0)
(3 2.63414e-15 0)
(3 2.5921e-15 0)
(3 2.41119e-15 0)
(3 2.27463e-15 0)
(3 1.77776e-15 0)
(3 4.91791e-16 0)
(3 2.18051e-16 0)
(3 9.17862e-16 0)
(3 1.52932e-15 0)
(3 2.00962e-15 0)
(3 2.18484e-15 0)
(3 1.55728e-15 0)
(3 5.72594e-16 0)
(3 -4.99049e-16 0)
(3 -3.57548e-15 0)
(3 -4.68739e-15 0)
(3 -4.9292e-15 0)
(3 -4.81899e-15 0)
(3 -5.28842e-15 0)
(3 -5.5953e-15 0)
(3 -5.43115e-15 0)
(3 -5.46547e-15 0)
(3 -5.51461e-15 0)
(3 -5.08274e-15 0)
(3 -3.69701e-15 0)
(3 -2.56395e-15 0)
(3 -1.93594e-15 0)
(3 -1.32374e-15 0)
(3 -9.77249e-16 0)
(3 -2.11792e-15 0)
(3 -2.67258e-15 0)
(3 -3.95765e-15 0)
(3 -3.91285e-15 0)
(3 -2.12892e-15 0)
(3 -1.78924e-15 0)
(3 -2.03335e-15 0)
(3 -3.33025e-15 0)
(3 -3.40319e-15 0)
(3 -3.31463e-15 0)
(3 -3.42716e-15 0)
(3 -3.64572e-15 0)
(3 -2.73687e-15 0)
(3 -1.02296e-15 0)
(3 8.18011e-16 0)
(3 1.15788e-15 0)
(3 9.42354e-16 0)
(3 1.87927e-16 0)
(3 -1.25883e-16 0)
(3 6.21804e-17 0)
(3 1.60536e-16 0)
(3 6.97858e-16 0)
(3 1.37737e-15 0)
(3 2.05e-15 0)
(3 2.00846e-15 0)
(3 2.13073e-15 0)
(3 -3.22465e-16 0)
(3 -8.44153e-16 0)
(3 -6.20693e-16 0)
(3 -2.79923e-16 0)
(3 -2.53409e-16 0)
(3 3.5835e-16 0)
(3 4.34894e-16 0)
(3 1.95113e-16 0)
(3 7.8303e-16 0)
(3 5.81214e-16 0)
(3 1.31746e-15 0)
(3 1.535e-15 0)
(3 1.93721e-15 0)
(3 1.86969e-15 0)
(3 7.87289e-16 0)
(3 2.39376e-16 0)
(3 6.09609e-16 0)
(3 1.21015e-15 0)
(3 1.82735e-15 0)
(3 2.26157e-15 0)
(3 2.40789e-15 0)
(3 3.26994e-15 0)
(3 3.66753e-15 0)
(3 3.45486e-15 0)
(3 3.23423e-15 0)
(3 3.36807e-15 0)
(3 3.86849e-15 0)
(3 4.52538e-15 0)
(3 5.35928e-15 0)
(3 5.34835e-15 0)
(3 4.62218e-15 0)
(3 2.84734e-15 0)
(3 1.59058e-15 0)
(3 1.12426e-15 0)
(3 1.09716e-15 0)
(3 1.76536e-15 0)
(3 1.88041e-15 0)
(3 1.24971e-15 0)
(3 1.12973e-15 0)
(3 9.1512e-16 0)
(3 1.78094e-15 0)
(3 1.58274e-15 0)
(3 1.25248e-15 0)
(3 3.04839e-15 0)
(3 3.134e-15 0)
(3 2.61699e-15 0)
(3 2.98605e-15 0)
(3 3.32445e-15 0)
(3 2.68303e-15 0)
(3 3.25281e-15 0)
(3 3.5908e-15 0)
(3 3.86233e-15 0)
(3 2.71252e-15 0)
(3 2.26273e-15 0)
(3 1.60999e-15 0)
(3 1.23352e-15 0)
(3 4.66644e-16 0)
(3 -8.80499e-17 0)
(3 -6.55897e-16 0)
(3 -1.61508e-15 0)
(3 -3.39377e-15 0)
(3 -5.34631e-15 0)
(3 -4.99986e-15 0)
(3 -4.35985e-15 0)
(3 -3.14202e-15 0)
(3 -2.58838e-15 0)
(3 -1.63575e-15 0)
(3 -5.62506e-16 0)
(3 6.18065e-16 0)
(3 1.19244e-15 0)
(3 1.13946e-15 0)
(3 1.94497e-16 0)
(3 -7.76659e-16 0)
(3 -2.38244e-15 0)
(3 -2.63064e-15 0)
(3 -2.42873e-15 0)
(3 -1.38384e-15 0)
(3 -2.31387e-16 0)
(3 -1.61316e-16 0)
(3 -1.40883e-15 0)
(3 -1.96313e-15 0)
(3 -1.82402e-15 0)
(3 -1.10709e-15 0)
(3 -6.01336e-16 0)
(3 4.12804e-16 0)
(3 9.46189e-16 0)
(3 -9.41463e-16 0)
(3 -1.96053e-15 0)
(3 -1.09833e-15 0)
(3 6.76118e-16 0)
(3 1.86959e-15 0)
(3 2.69023e-15 0)
(3 4.06177e-15 0)
(3 4.75655e-15 0)
(3 3.58719e-15 0)
(3 2.20033e-15 0)
(3 -4.95565e-17 0)
(3 -9.51906e-17 0)
(3 3.12615e-16 0)
(3 3.61924e-16 0)
(3 6.34161e-16 0)
(3 1.20715e-15 0)
(3 1.53213e-15 0)
(3 1.83285e-15 0)
(3 1.83353e-15 0)
(3 1.48736e-15 0)
(3 1.29908e-15 0)
(3 1.5931e-15 0)
(3 1.59263e-15 0)
(3 9.75957e-16 0)
(3 3.48898e-16 0)
(3 4.50955e-16 0)
(3 1.11292e-15 0)
(3 2.05649e-15 0)
(3 2.73254e-15 0)
(3 2.61062e-15 0)
(3 1.91964e-15 0)
(3 1.81575e-15 0)
(3 1.339e-15 0)
(3 4.20668e-16 0)
(3 8.27559e-18 0)
(3 3.47197e-16 0)
(3 1.3603e-15 0)
(3 1.9091e-15 0)
(3 1.7978e-15 0)
(3 1.73226e-15 0)
(3 1.37259e-15 0)
(3 7.27197e-16 0)
(3 1.06041e-15 0)
(3 2.31254e-15 0)
(3 3.65528e-15 0)
(3 4.202e-15 0)
(3 3.58177e-15 0)
(3 1.8843e-15 0)
(3 8.63875e-16 0)
(3 7.3062e-16 0)
(3 2.43768e-16 0)
(3 -3.26159e-16 0)
(3 -1.09997e-15 0)
(3 -1.02576e-15 0)
(3 -5.89005e-16 0)
(3 -4.14205e-16 0)
(3 -9.9596e-18 0)
(3 8.62494e-16 0)
(3 1.74539e-15 0)
(3 2.88602e-15 0)
(3 3.17494e-15 0)
(3 3.36013e-15 0)
(3 3.27727e-15 0)
(3 2.7616e-15 0)
(3 1.75087e-15 0)
(3 1.25276e-15 0)
(3 1.4241e-15 0)
(3 1.04484e-15 0)
(3 1.19885e-16 0)
(3 -7.51196e-16 0)
(3 -2.51604e-15 0)
(3 -2.74084e-15 0)
(3 -2.70489e-15 0)
(3 -2.42018e-15 0)
(3 -1.88117e-15 0)
(3 -1.91996e-15 0)
(3 -1.46698e-15 0)
(3 -3.69124e-16 0)
(3 2.31503e-16 0)
(3 9.34971e-16 0)
(3 1.78682e-15 0)
(3 2.08284e-15 0)
(3 1.78006e-15 0)
(3 1.14484e-15 0)
(3 2.21045e-16 0)
(3 5.81271e-16 0)
(3 6.8712e-16 0)
(3 1.23293e-15 0)
(3 4.88629e-16 0)
(3 -2.39447e-16 0)
(3 -8.00626e-16 0)
(3 -7.60461e-16 0)
(3 -7.42853e-16 0)
(3 -1.02213e-15 0)
(3 -1.52326e-15 0)
(3 -1.75325e-15 0)
(3 -5.93416e-16 0)
(3 6.62497e-17 0)
(3 1.82884e-15 0)
(3 3.81115e-15 0)
(3 4.51409e-15 0)
(3 5.12639e-15 0)
(3 5.13194e-15 0)
(3 4.50777e-15 0)
(3 2.4355e-15 0)
(3 1.47885e-15 0)
(3 -1.89068e-17 0)
(3 3.13074e-17 0)
(3 -3.78306e-17 0)
(3 -2.56199e-18 0)
(3 5.66375e-16 0)
(3 1.3359e-15 0)
(3 1.57268e-15 0)
(3 1.63878e-15 0)
(3 9.16178e-16 0)
(3 7.73364e-16 0)
(3 4.73951e-16 0)
(3 3.17202e-16 0)
(3 -1.9368e-16 0)
(3 -1.70757e-16 0)
(3 -3.6995e-17 0)
(3 1.91038e-16 0)
(3 6.46042e-16 0)
(3 1.03935e-15 0)
(3 5.73161e-16 0)
(3 -3.6225e-16 0)
(3 -5.03513e-16 0)
(3 -1.6619e-16 0)
(3 -3.32785e-16 0)
(3 1.65243e-16 0)
(3 2.22591e-16 0)
(3 1.30975e-16 0)
(3 2.59121e-16 0)
(3 -2.63725e-16 0)
(3 -1.25662e-15 0)
(3 -1.30177e-15 0)
(3 -1.18253e-15 0)
(3 -5.33341e-16 0)
(3 6.41608e-16 0)
(3 2.43466e-15 0)
(3 2.64218e-15 0)
(3 2.28711e-15 0)
(3 1.95095e-15 0)
(3 1.38586e-15 0)
(3 1.21395e-15 0)
(3 3.26168e-16 0)
(3 -1.73092e-16 0)
(3 -2.49797e-16 0)
(3 -1.25159e-15 0)
(3 -3.41176e-15 0)
(3 -3.42253e-15 0)
(3 -2.48338e-15 0)
(3 -1.72735e-15 0)
(3 3.51787e-16 0)
(3 1.20199e-15 0)
(3 1.00579e-15 0)
(3 1.18723e-15 0)
(3 1.70389e-15 0)
(3 1.79971e-15 0)
(3 1.76307e-15 0)
(3 1.56559e-15 0)
(3 1.14244e-15 0)
(3 8.7784e-16 0)
(3 -1.79969e-17 0)
(3 -2.625e-16 0)
(3 -3.92807e-16 0)
(3 2.529e-16 0)
(3 9.26511e-16 0)
(3 5.78069e-16 0)
(3 1.08341e-15 0)
(3 1.2998e-15 0)
(3 1.34789e-15 0)
(3 1.64021e-15 0)
(3 2.11807e-15 0)
(3 2.42074e-15 0)
(3 2.52008e-15 0)
(3 2.81684e-15 0)
(3 3.55645e-15 0)
(3 3.81198e-15 0)
(3 4.14556e-15 0)
(3 3.74476e-15 0)
(3 2.5905e-15 0)
(3 1.5666e-15 0)
(3 7.49205e-16 0)
(3 1.08956e-15 0)
(3 2.22624e-15 0)
(3 2.59712e-15 0)
(3 1.51174e-15 0)
(3 7.84683e-16 0)
(3 9.23808e-16 0)
(3 9.49132e-16 0)
(3 6.64985e-16 0)
(3 1.88237e-15 0)
(3 2.61932e-15 0)
(3 3.44716e-15 0)
(3 3.3825e-15 0)
(3 3.47913e-15 0)
(3 3.01189e-15 0)
(3 1.92136e-15 0)
(3 7.93789e-16 0)
(3 2.70229e-16 0)
(3 5.1334e-16 0)
(3 -1.16452e-16 0)
(3 2.95381e-17 0)
(3 -1.15049e-16 0)
(3 3.7468e-16 0)
(3 1.07413e-15 0)
(3 1.10949e-15 0)
(3 9.63888e-16 0)
(3 1.2457e-15 0)
(3 4.40642e-16 0)
(3 1.37738e-16 0)
(3 1.23555e-16 0)
(3 -6.60854e-18 0)
(3 -1.64017e-16 0)
(3 -3.22959e-16 0)
(3 -1.23316e-16 0)
(3 -2.39383e-16 0)
(3 -2.94431e-16 0)
(3 -3.46143e-16 0)
(3 -9.67594e-16 0)
(3 -1.25115e-15 0)
(3 -7.69014e-16 0)
(3 -2.3815e-16 0)
(3 -2.91648e-16 0)
(3 -5.78179e-16 0)
(3 -1.10792e-15 0)
(3 -1.41686e-15 0)
(3 -2.41894e-15 0)
(3 -2.84773e-15 0)
(3 -2.52975e-15 0)
(3 -2.24892e-15 0)
(3 -1.25193e-15 0)
(3 -1.48601e-17 0)
(3 9.22886e-16 0)
(3 7.42209e-16 0)
(3 -2.11717e-16 0)
(3 -1.50762e-15 0)
(3 -1.468e-15 0)
(3 -3.72945e-16 0)
(3 2.82672e-16 0)
(3 5.65641e-17 0)
(3 -7.21787e-17 0)
(3 2.47623e-17 0)
(3 6.7384e-17 0)
(3 -9.86037e-16 0)
(3 -2.22777e-15 0)
(3 -3.02005e-15 0)
(3 -2.73217e-15 0)
(3 -2.1948e-15 0)
(3 -1.62121e-15 0)
(3 -1.77224e-15 0)
(3 -5.81753e-16 0)
(3 -5.67101e-16 0)
(3 -6.7987e-16 0)
(3 -1.44745e-15 0)
(3 -1.18394e-15 0)
(3 -7.19457e-16 0)
(3 -4.26402e-16 0)
(3 2.1166e-16 0)
(3 6.81785e-17 0)
(3 7.62779e-17 0)
(3 1.92226e-15 0)
(3 3.98873e-15 0)
(3 4.12814e-15 0)
(3 4.62059e-15 0)
(3 4.27514e-15 0)
(3 3.89145e-15 0)
(3 3.22522e-15 0)
(3 2.1862e-15 0)
(3 1.81209e-15 0)
(3 1.85436e-15 0)
(3 1.92752e-15 0)
(3 1.77134e-15 0)
(3 2.12036e-15 0)
(3 2.51599e-15 0)
(3 2.12033e-15 0)
(3 1.64495e-15 0)
(3 1.88091e-15 0)
(3 3.11501e-15 0)
(3 4.4558e-15 0)
(3 6.02609e-15 0)
(3 6.09557e-15 0)
(3 5.46161e-15 0)
(3 3.39895e-15 0)
(3 2.72686e-15 0)
(3 2.29115e-15 0)
(3 2.57589e-15 0)
(3 2.95028e-15 0)
(3 2.72868e-15 0)
(3 -5.41498e-16 0)
(3 -1.46983e-15 0)
(3 -1.07848e-15 0)
(3 -1.80431e-15 0)
(3 -1.79375e-15 0)
(3 -1.20594e-15 0)
(3 -3.46651e-16 0)
(3 -5.03698e-16 0)
(3 9.4329e-18 0)
(3 -8.55746e-17 0)
(3 6.71341e-17 0)
(3 1.09349e-16 0)
(3 -4.89535e-16 0)
(3 -3.85028e-16 0)
(3 -1.9948e-16 0)
(3 3.50113e-16 0)
(3 6.00825e-16 0)
(3 3.83548e-16 0)
(3 1.57196e-16 0)
(3 8.2288e-17 0)
(3 5.11627e-16 0)
(3 9.53268e-16 0)
(3 4.59713e-16 0)
(3 4.83087e-17 0)
(3 5.92295e-17 0)
(3 1.30519e-17 0)
(3 2.37535e-16 0)
(3 5.63275e-16 0)
(3 3.24971e-16 0)
(3 9.46336e-17 0)
(3 8.5227e-18 0)
(3 -6.09738e-16 0)
(3 -1.19073e-15 0)
(3 -1.67637e-15 0)
(3 -1.6265e-15 0)
(3 -1.3797e-15 0)
(3 -1.43279e-15 0)
(3 -1.16273e-15 0)
(3 -5.52642e-16 0)
(3 -6.79259e-17 0)
(3 2.04073e-16 0)
(3 -4.5246e-16 0)
(3 -7.77963e-16 0)
(3 -1.03442e-15 0)
(3 -1.84959e-15 0)
(3 -1.81139e-15 0)
(3 -2.05572e-15 0)
(3 -1.94182e-15 0)
(3 -1.44327e-15 0)
(3 -1.05551e-15 0)
(3 2.4058e-16 0)
(3 6.75959e-16 0)
(3 1.33629e-16 0)
(3 1.37669e-16 0)
(3 -1.48958e-15 0)
(3 -3.08963e-15 0)
(3 -3.14696e-15 0)
(3 -2.71722e-15 0)
(3 -2.24518e-15 0)
(3 -1.87842e-15 0)
(3 -1.14054e-15 0)
(3 -8.2664e-16 0)
(3 -9.39156e-16 0)
(3 -7.92471e-16 0)
(3 -8.13086e-16 0)
(3 -5.01419e-16 0)
(3 -6.81607e-17 0)
(3 7.59225e-16 0)
(3 1.91579e-15 0)
(3 2.93397e-15 0)
(3 4.33756e-15 0)
(3 3.95882e-15 0)
(3 3.21682e-15 0)
(3 2.71858e-15 0)
(3 1.26586e-15 0)
(3 -7.75157e-16 0)
(3 -1.2358e-15 0)
(3 -1.02851e-15 0)
(3 2.03982e-18 0)
(3 2.44514e-16 0)
(3 3.96305e-16 0)
(3 8.83671e-16 0)
(3 5.00103e-16 0)
(3 9.095e-16 0)
(3 2.09526e-15 0)
(3 5.02205e-15 0)
(3 5.38927e-15 0)
(3 4.13736e-15 0)
(3 3.32307e-15 0)
(3 3.57576e-15 0)
(3 2.8398e-15 0)
(3 7.66339e-16 0)
(3 3.6878e-16 0)
(3 -8.33929e-16 0)
(3 -1.8853e-15 0)
(3 -1.862e-15 0)
(3 -1.88437e-15 0)
(3 -1.61916e-15 0)
(3 -1.79866e-15 0)
(3 -1.21998e-15 0)
(3 -1.05407e-15 0)
(3 -1.14613e-15 0)
(3 -1.42567e-15 0)
(3 -2.36651e-15 0)
(3 -6.19451e-18 0)
(3 -2.28201e-16 0)
(3 -3.5129e-16 0)
(3 -1.14869e-15 0)
(3 -1.15098e-15 0)
(3 -7.69518e-16 0)
(3 -1.09287e-15 0)
(3 -1.32182e-15 0)
(3 -7.7318e-16 0)
(3 -3.55794e-16 0)
(3 -3.31715e-16 0)
(3 -4.61292e-16 0)
(3 7.19679e-17 0)
(3 1.19149e-15 0)
(3 1.05876e-15 0)
(3 6.35536e-16 0)
(3 -1.89579e-16 0)
(3 -6.69663e-16 0)
(3 -2.26095e-16 0)
(3 -3.28018e-17 0)
(3 -6.18994e-17 0)
(3 -3.46027e-16 0)
(3 2.9421e-16 0)
(3 9.29094e-16 0)
(3 8.35128e-16 0)
(3 6.53866e-16 0)
(3 3.05664e-16 0)
(3 7.25042e-16 0)
(3 9.3872e-16 0)
(3 8.31015e-16 0)
(3 -6.85661e-17 0)
(3 -1.59861e-15 0)
(3 -2.18482e-15 0)
(3 -2.76462e-15 0)
(3 -2.84843e-15 0)
(3 -2.89594e-15 0)
(3 -2.86161e-15 0)
(3 -2.77054e-15 0)
(3 -1.98044e-15 0)
(3 -6.11489e-16 0)
(3 -4.27457e-16 0)
(3 9.58808e-16 0)
(3 1.38834e-15 0)
(3 1.66027e-15 0)
(3 1.83916e-15 0)
(3 1.55165e-15 0)
(3 2.8759e-16 0)
(3 -9.12556e-16 0)
(3 -1.26109e-15 0)
(3 -1.76173e-15 0)
(3 -1.90759e-15 0)
(3 -2.66881e-15 0)
(3 -2.52363e-15 0)
(3 -1.34232e-15 0)
(3 1.2994e-15 0)
(3 2.44279e-15 0)
(3 2.43932e-15 0)
(3 1.67287e-15 0)
(3 1.58386e-15 0)
(3 1.5006e-15 0)
(3 1.1976e-15 0)
(3 8.60785e-16 0)
(3 1.10476e-15 0)
(3 1.26439e-15 0)
(3 2.22208e-15 0)
(3 2.7304e-15 0)
(3 2.66779e-15 0)
(3 2.64935e-15 0)
(3 2.46592e-15 0)
(3 1.7284e-15 0)
(3 1.53297e-15 0)
(3 2.12845e-15 0)
(3 2.30252e-15 0)
(3 2.00878e-15 0)
(3 2.44984e-15 0)
(3 3.89153e-15 0)
(3 4.34064e-15 0)
(3 4.04202e-15 0)
(3 4.8089e-15 0)
(3 4.70181e-15 0)
(3 3.99992e-15 0)
(3 3.96142e-15 0)
(3 4.31901e-15 0)
(3 2.39059e-15 0)
(3 -8.82738e-16 0)
(3 -2.71379e-15 0)
(3 -2.30315e-15 0)
(3 -1.59488e-15 0)
(3 -6.16248e-16 0)
(3 2.93747e-16 0)
(3 -1.34433e-17 0)
(3 1.63486e-15 0)
(3 1.67571e-15 0)
(3 8.63396e-16 0)
(3 -3.73728e-16 0)
(3 -1.68554e-15 0)
(3 -1.47831e-17 0)
(3 -1.7949e-17 0)
(3 -3.46428e-16 0)
(3 -9.14046e-16 0)
(3 -1.15257e-16 0)
(3 -1.06202e-15 0)
(3 -1.63441e-15 0)
(3 -2.13358e-15 0)
(3 -1.91359e-15 0)
(3 -8.77653e-16 0)
(3 4.95632e-16 0)
(3 9.1045e-16 0)
(3 5.34328e-16 0)
(3 8.95319e-17 0)
(3 1.95146e-16 0)
(3 3.80941e-16 0)
(3 -4.72345e-16 0)
(3 -1.74215e-15 0)
(3 -1.77695e-15 0)
(3 -1.5503e-15 0)
(3 -8.9748e-16 0)
(3 -4.69014e-16 0)
(3 -5.15396e-16 0)
(3 -1.40507e-16 0)
(3 -3.1043e-16 0)
(3 -2.93383e-16 0)
(3 -4.84266e-16 0)
(3 -3.51339e-16 0)
(3 -2.61542e-16 0)
(3 -3.14604e-16 0)
(3 -1.24084e-15 0)
(3 -3.1582e-15 0)
(3 -3.86277e-15 0)
(3 -3.17291e-15 0)
(3 -2.80235e-15 0)
(3 -2.93195e-15 0)
(3 -3.14245e-15 0)
(3 -3.20614e-15 0)
(3 -2.79997e-15 0)
(3 -2.17638e-15 0)
(3 -2.46008e-15 0)
(3 -8.40149e-16 0)
(3 1.31668e-16 0)
(3 7.61274e-16 0)
(3 9.19064e-16 0)
(3 5.00008e-16 0)
(3 8.73036e-18 0)
(3 -1.08967e-15 0)
(3 -1.2974e-15 0)
(3 -1.25558e-15 0)
(3 -1.78597e-15 0)
(3 -2.48903e-15 0)
(3 -2.12652e-15 0)
(3 -1.5956e-15 0)
(3 -4.8247e-16 0)
(3 -3.46042e-16 0)
(3 8.58673e-17 0)
(3 1.29861e-15 0)
(3 1.35941e-15 0)
(3 9.45614e-16 0)
(3 4.0223e-16 0)
(3 8.91168e-17 0)
(3 5.72829e-16 0)