/*--------------------------------*- C++ -*----------------------------------*\
  =========                 |
  \\      /  F ield         | OpenFOAM: The Open Source CFD Toolbox
   \\    /   O peration     | Website:  https://openfoam.org
    \\  /    A nd           | Version:  7
     \\/     M anipulation  |
\*---------------------------------------------------------------------------*/
FoamFile
{
    version     2.0;
    format      ascii;
    class       volVectorField;
    location    "0.6";
    object      U;
}
// * * * * * * * * * * * * * * * * * * * * * * * * * * * * * * * * * * * * * //

dimensions      [0 1 -1 0 0 0 0];

internalField   nonuniform List<vector> 
73728
(
(3 3.82886e-17 0)
(3 3.23003e-17 0)
(3 1.90214e-16 0)
(3 1.46589e-16 0)
(3 3.74917e-16 0)
(3 3.37295e-16 0)
(3 2.36201e-16 0)
(3 7.29397e-17 0)
(3 -2.97412e-16 0)
(3 -4.18418e-16 0)
(3 -7.50603e-16 0)
(3 -6.71585e-16 0)
(3 -3.84506e-17 0)
(3 1.16819e-15 0)
(3 1.98747e-15 0)
(3 1.87733e-15 0)
(3 1.3716e-15 0)
(3 5.25668e-16 0)
(3 3.10188e-16 0)
(3 7.64213e-16 0)
(3 3.72803e-16 0)
(3 -3.07529e-18 0)
(3 -2.83843e-16 0)
(3 -9.13445e-16 0)
(3 -1.15261e-15 0)
(3 -8.64533e-16 0)
(3 1.6214e-16 0)
(3 7.1214e-16 0)
(3 1.25381e-16 0)
(3 -4.04752e-16 0)
(3 -8.15314e-16 0)
(3 -9.10994e-16 0)
(3 -3.06242e-16 0)
(3 1.09855e-16 0)
(3 -7.30327e-16 0)
(3 -8.56255e-16 0)
(3 1.00578e-15 0)
(3 4.85001e-16 0)
(3 1.46527e-16 0)
(3 -3.25665e-16 0)
(3 -2.01826e-16 0)
(3 1.21221e-16 0)
(3 -4.43605e-18 0)
(3 -9.672e-16 0)
(3 -1.92612e-15 0)
(3 -2.36518e-15 0)
(3 -1.38894e-15 0)
(3 -7.67873e-16 0)
(3 1.12294e-16 0)
(3 2.98882e-16 0)
(3 5.07031e-16 0)
(3 7.96004e-16 0)
(3 1.41905e-15 0)
(3 1.75143e-15 0)
(3 6.61193e-16 0)
(3 2.72584e-16 0)
(3 1.26024e-15 0)
(3 6.35462e-16 0)
(3 3.10506e-16 0)
(3 2.7583e-16 0)
(3 4.83001e-16 0)
(3 4.17516e-16 0)
(3 3.88532e-16 0)
(3 8.89182e-16 0)
(3 1.11489e-15 0)
(3 1.15244e-15 0)
(3 1.05234e-15 0)
(3 1.43687e-15 0)
(3 9.5755e-16 0)
(3 1.55913e-15 0)
(3 2.20098e-15 0)
(3 2.97569e-15 0)
(3 2.67316e-15 0)
(3 2.89171e-15 0)
(3 2.47972e-15 0)
(3 2.42867e-15 0)
(3 3.35382e-15 0)
(3 4.10603e-15 0)
(3 3.55157e-15 0)
(3 2.05507e-15 0)
(3 1.92819e-15 0)
(3 2.30811e-15 0)
(3 2.62554e-15 0)
(3 1.87156e-15 0)
(3 1.06381e-15 0)
(3 7.83214e-16 0)
(3 3.01805e-16 0)
(3 -1.78706e-16 0)
(3 -1.74873e-15 0)
(3 -2.05002e-15 0)
(3 -1.36862e-15 0)
(3 -9.63873e-16 0)
(3 -8.78483e-16 0)
(3 -2.04582e-17 0)
(3 2.74978e-16 0)
(3 -4.7297e-16 0)
(3 9.21468e-17 0)
(3 4.14798e-16 0)
(3 8.24921e-16 0)
(3 4.19564e-16 0)
(3 2.0253e-16 0)
(3 -3.01663e-16 0)
(3 -3.68531e-16 0)
(3 -5.89856e-16 0)
(3 -1.17961e-15 0)
(3 -1.28089e-15 0)
(3 -9.61205e-16 0)
(3 -4.44974e-16 0)
(3 -3.35265e-16 0)
(3 4.56244e-16 0)
(3 1.40272e-15 0)
(3 2.11271e-15 0)
(3 1.55579e-15 0)
(3 7.80028e-16 0)
(3 9.41198e-17 0)
(3 4.6281e-17 0)
(3 -2.13647e-16 0)
(3 7.15595e-17 0)
(3 6.84528e-17 0)
(3 -7.01938e-16 0)
(3 -1.32974e-15 0)
(3 -8.53943e-16 0)
(3 -4.37849e-16 0)
(3 -9.9701e-17 0)
(3 -8.30517e-16 0)
(3 -9.60631e-16 0)
(3 -1.49883e-15 0)
(3 -1.99466e-15 0)
(3 -1.65158e-15 0)
(3 -6.90683e-16 0)
(3 -1.3986e-15 0)
(3 -9.70149e-16 0)
(3 1.29546e-15 0)
(3 1.41389e-15 0)
(3 5.24636e-16 0)
(3 -6.39362e-16 0)
(3 -7.57614e-16 0)
(3 -3.63816e-16 0)
(3 7.67569e-16 0)
(3 1.04438e-15 0)
(3 5.77568e-16 0)
(3 -6.46147e-16 0)
(3 -7.09758e-16 0)
(3 -5.18304e-16 0)
(3 -3.79189e-16 0)
(3 2.22033e-16 0)
(3 8.51553e-17 0)
(3 8.57252e-16 0)
(3 2.12321e-15 0)
(3 2.85163e-15 0)
(3 9.59841e-16 0)
(3 8.28162e-16 0)
(3 1.93336e-15 0)
(3 1.36514e-15 0)
(3 5.38137e-16 0)
(3 3.34571e-17 0)
(3 -5.44279e-17 0)
(3 7.97001e-16 0)
(3 1.34065e-15 0)
(3 3.83538e-15 0)
(3 4.07335e-15 0)
(3 3.41271e-15 0)
(3 2.61505e-15 0)
(3 2.19766e-15 0)
(3 1.53301e-15 0)
(3 2.89823e-15 0)
(3 4.09817e-15 0)
(3 4.3051e-15 0)
(3 4.68891e-15 0)
(3 6.03727e-15 0)
(3 6.2665e-15 0)
(3 5.76144e-15 0)
(3 5.34903e-15 0)
(3 5.1136e-15 0)
(3 4.87396e-15 0)
(3 3.58498e-15 0)
(3 2.85788e-15 0)
(3 2.67339e-15 0)
(3 2.80555e-15 0)
(3 1.76777e-15 0)
(3 6.12665e-16 0)
(3 -2.26458e-16 0)
(3 -8.02096e-16 0)
(3 -1.33556e-15 0)
(3 -4.54753e-15 0)
(3 -4.55118e-15 0)
(3 -2.49241e-15 0)
(3 -1.87327e-15 0)
(3 -1.39848e-15 0)
(3 -4.87531e-16 0)
(3 4.45634e-16 0)
(3 3.54442e-16 0)
(3 -6.0383e-17 0)
(3 -1.9211e-16 0)
(3 -5.75749e-17 0)
(3 2.30838e-16 0)
(3 -1.47663e-16 0)
(3 -4.56691e-16 0)
(3 -6.59453e-16 0)
(3 -6.66329e-16 0)
(3 -8.5752e-16 0)
(3 -8.81191e-16 0)
(3 -5.91174e-16 0)
(3 -2.97603e-16 0)
(3 -6.2921e-16 0)
(3 -1.49182e-15 0)
(3 -1.87686e-15 0)
(3 -1.26106e-15 0)
(3 -9.22482e-16 0)
(3 -5.25838e-16 0)
(3 -7.6754e-16 0)
(3 -1.1997e-15 0)
(3 -8.88029e-16 0)
(3 -2.2231e-16 0)
(3 -3.70179e-16 0)
(3 -3.94436e-16 0)
(3 -7.16006e-17 0)
(3 -3.93073e-17 0)
(3 -2.35221e-16 0)
(3 -3.36226e-16 0)
(3 -3.9966e-16 0)
(3 -8.90918e-16 0)
(3 -1.33461e-15 0)
(3 -1.91782e-15 0)
(3 -3.53776e-15 0)
(3 -3.20802e-15 0)
(3 -1.1332e-15 0)
(3 -6.5803e-16 0)
(3 -7.91737e-16 0)
(3 -8.4596e-16 0)
(3 -7.67231e-16 0)
(3 -4.20998e-16 0)
(3 -4.0044e-16 0)
(3 -5.12725e-16 0)
(3 -1.63525e-16 0)
(3 -2.54033e-16 0)
(3 -3.58981e-16 0)
(3 -3.1549e-16 0)
(3 -5.60986e-16 0)
(3 -7.23148e-16 0)
(3 -1.21937e-15 0)
(3 6.69343e-17 0)
(3 4.77306e-16 0)
(3 6.1327e-16 0)
(3 5.93519e-16 0)
(3 4.65424e-16 0)
(3 -1.30811e-16 0)
(3 7.54923e-18 0)
(3 -7.23834e-16 0)
(3 -1.76805e-15 0)
(3 -8.90593e-16 0)
(3 2.52639e-16 0)
(3 1.11067e-15 0)
(3 1.3737e-15 0)
(3 2.37767e-15 0)
(3 2.97107e-15 0)
(3 2.95952e-15 0)
(3 3.42863e-15 0)
(3 3.69721e-15 0)
(3 3.37175e-15 0)
(3 3.20707e-15 0)
(3 3.44566e-15 0)
(3 4.25517e-15 0)
(3 4.4978e-15 0)
(3 4.60595e-15 0)
(3 4.75094e-15 0)
(3 5.21135e-15 0)
(3 4.73941e-15 0)
(3 4.49798e-15 0)
(3 4.52959e-15 0)
(3 4.21149e-15 0)
(3 3.27432e-15 0)
(3 1.61684e-15 0)
(3 1.71831e-15 0)
(3 2.59003e-15 0)
(3 4.49713e-15 0)
(3 4.20826e-15 0)
(3 2.54172e-15 0)
(3 1.06117e-16 0)
(3 -2.54729e-15 0)
(3 -3.85973e-15 0)
(3 -3.39529e-15 0)
(3 -3.4166e-15 0)
(3 -3.65668e-15 0)
(3 -2.08187e-15 0)
(3 -1.45711e-15 0)
(3 -5.14408e-16 0)
(3 -4.37882e-16 0)
(3 -1.81769e-16 0)
(3 -5.02845e-16 0)
(3 -2.21282e-16 0)
(3 -7.95601e-17 0)
(3 9.98409e-17 0)
(3 -2.51345e-16 0)
(3 -7.10098e-16 0)
(3 -8.70976e-16 0)
(3 -9.1936e-16 0)
(3 -8.11853e-16 0)
(3 -5.13546e-16 0)
(3 -1.6773e-16 0)
(3 -6.69693e-16 0)
(3 -2.12263e-15 0)
(3 -3.94745e-15 0)
(3 -4.16566e-15 0)
(3 -1.7682e-15 0)
(3 -9.7582e-16 0)
(3 -7.40798e-16 0)
(3 -3.49339e-16 0)
(3 2.08824e-16 0)
(3 3.33297e-16 0)
(3 2.53382e-16 0)
(3 6.78367e-16 0)
(3 1.0602e-15 0)
(3 1.01082e-15 0)
(3 6.50743e-16 0)
(3 5.80024e-16 0)
(3 1.34764e-16 0)
(3 -5.73785e-16 0)
(3 -7.25118e-16 0)
(3 -4.52523e-16 0)
(3 -7.08246e-16 0)
(3 -3.19594e-16 0)
(3 1.95035e-16 0)
(3 -1.22122e-15 0)
(3 -2.26078e-15 0)
(3 -2.68186e-15 0)
(3 -1.89364e-15 0)
(3 -4.50274e-16 0)
(3 4.91226e-17 0)
(3 -5.46892e-16 0)
(3 -1.14765e-15 0)
(3 -1.93325e-15 0)
(3 -2.216e-15 0)
(3 -6.56084e-16 0)
(3 -8.63969e-16 0)
(3 -1.54465e-15 0)
(3 -2.15503e-15 0)
(3 -1.52628e-15 0)
(3 -1.79809e-16 0)
(3 -2.11835e-16 0)
(3 -7.61397e-16 0)
(3 -7.31674e-16 0)
(3 -4.32605e-16 0)
(3 -1.07919e-16 0)
(3 -5.92518e-16 0)
(3 -1.92669e-15 0)
(3 -8.57545e-16 0)
(3 1.08876e-15 0)
(3 1.46638e-15 0)
(3 2.78922e-15 0)
(3 2.82248e-15 0)
(3 2.26847e-15 0)
(3 2.37285e-15 0)
(3 2.9935e-15 0)
(3 3.5028e-15 0)
(3 4.26761e-15 0)
(3 3.99697e-15 0)
(3 3.24729e-15 0)
(3 3.92932e-15 0)
(3 4.19231e-15 0)
(3 3.86025e-15 0)
(3 3.802e-15 0)
(3 4.10413e-15 0)
(3 4.02482e-15 0)
(3 3.96463e-15 0)
(3 4.0142e-15 0)
(3 2.56045e-15 0)
(3 4.43444e-16 0)
(3 2.11792e-16 0)
(3 1.67273e-15 0)
(3 3.80952e-15 0)
(3 5.65552e-15 0)
(3 4.22731e-15 0)
(3 4.07707e-16 0)
(3 -1.64581e-15 0)
(3 -2.48884e-15 0)
(3 -2.81352e-15 0)
(3 -2.39499e-15 0)
(3 -1.22857e-15 0)
(3 -1.82445e-15 0)
(3 -2.40207e-15 0)
(3 -1.87312e-15 0)
(3 -3.29102e-15 0)
(3 -4.86189e-15 0)
(3 6.24405e-17 0)
(3 2.52805e-16 0)
(3 3.531e-16 0)
(3 -1.52683e-16 0)
(3 -4.34217e-16 0)
(3 -6.65083e-16 0)
(3 -8.94633e-16 0)
(3 -9.81629e-16 0)
(3 -1.33346e-15 0)
(3 -1.37774e-15 0)
(3 -1.24773e-15 0)
(3 -1.58143e-15 0)
(3 -1.84086e-15 0)
(3 -1.71664e-15 0)
(3 -1.7192e-15 0)
(3 -7.26708e-16 0)
(3 -2.44499e-16 0)
(3 -6.53318e-16 0)
(3 -8.51365e-16 0)
(3 -5.19778e-16 0)
(3 -2.32278e-16 0)
(3 7.8468e-17 0)
(3 1.40532e-15 0)
(3 1.41957e-15 0)
(3 4.8704e-16 0)
(3 -4.93385e-16 0)
(3 -1.56368e-15 0)
(3 -1.4486e-15 0)
(3 -1.5811e-15 0)
(3 -9.32487e-16 0)
(3 -2.79559e-16 0)
(3 3.82241e-16 0)
(3 1.52352e-15 0)
(3 2.90072e-15 0)
(3 2.11098e-15 0)
(3 2.1464e-16 0)
(3 -1.87029e-15 0)
(3 -1.45865e-15 0)
(3 -1.57382e-18 0)
(3 1.13465e-15 0)
(3 1.00762e-15 0)
(3 2.50874e-16 0)
(3 -1.07949e-15 0)
(3 -1.52938e-15 0)
(3 -8.39238e-16 0)
(3 -2.13142e-16 0)
(3 -2.4077e-16 0)
(3 -6.52608e-16 0)
(3 -1.59348e-15 0)
(3 -1.41156e-15 0)
(3 -8.6618e-16 0)
(3 -3.30397e-16 0)
(3 1.09784e-15 0)
(3 1.02662e-15 0)
(3 -1.13089e-15 0)
(3 -2.17853e-15 0)
(3 -2.53708e-15 0)
(3 -1.62913e-15 0)
(3 -2.19751e-15 0)
(3 -4.00438e-15 0)
(3 -3.09734e-15 0)
(3 5.37777e-16 0)
(3 1.77294e-15 0)
(3 2.51527e-15 0)
(3 3.43195e-15 0)
(3 3.18852e-15 0)
(3 2.72686e-15 0)
(3 1.93345e-15 0)
(3 1.58085e-15 0)
(3 1.85694e-15 0)
(3 1.21464e-15 0)
(3 9.03128e-16 0)
(3 1.38183e-15 0)
(3 1.64317e-15 0)
(3 2.44901e-15 0)
(3 2.80654e-15 0)
(3 1.48419e-15 0)
(3 1.40093e-15 0)
(3 1.04597e-15 0)
(3 1.20667e-15 0)
(3 1.69065e-15 0)
(3 2.54741e-15 0)
(3 3.56689e-15 0)
(3 3.96508e-15 0)
(3 3.81081e-15 0)
(3 1.46298e-15 0)
(3 -2.75822e-16 0)
(3 -1.50835e-15 0)
(3 -3.37958e-15 0)
(3 -3.90035e-15 0)
(3 -3.71551e-15 0)
(3 -3.48592e-15 0)
(3 -1.99737e-15 0)
(3 -1.90496e-15 0)
(3 -2.79816e-15 0)
(3 -4.35443e-15 0)
(3 -7.69132e-17 0)
(3 9.32867e-17 0)
(3 1.37586e-16 0)
(3 2.19612e-16 0)
(3 -2.93759e-16 0)
(3 -6.31337e-17 0)
(3 7.45479e-17 0)
(3 -2.08832e-17 0)
(3 -1.71169e-17 0)
(3 -8.08544e-18 0)
(3 -4.82639e-16 0)
(3 -4.96588e-16 0)
(3 -1.38536e-16 0)
(3 7.60256e-16 0)
(3 2.52568e-15 0)
(3 1.24034e-15 0)
(3 1.16793e-16 0)
(3 3.6242e-16 0)
(3 4.64346e-16 0)
(3 3.58985e-16 0)
(3 -2.19141e-16 0)
(3 -1.01633e-16 0)
(3 2.89672e-16 0)
(3 3.82314e-16 0)
(3 -9.44693e-17 0)
(3 -7.7787e-16 0)
(3 -1.30214e-15 0)
(3 -1.28396e-15 0)
(3 -9.50879e-16 0)
(3 2.88383e-16 0)
(3 1.23835e-15 0)
(3 1.16884e-15 0)
(3 1.8755e-15 0)
(3 2.47002e-15 0)
(3 1.48173e-15 0)
(3 9.76563e-17 0)
(3 -1.20089e-15 0)
(3 -1.40108e-15 0)
(3 1.79096e-15 0)
(3 2.51684e-15 0)
(3 2.37817e-15 0)
(3 1.77167e-15 0)
(3 5.35758e-16 0)
(3 4.59919e-16 0)
(3 1.05061e-16 0)
(3 -4.48822e-16 0)
(3 -1.23175e-15 0)
(3 -1.55379e-15 0)
(3 -1.39653e-15 0)
(3 -4.89322e-16 0)
(3 1.08473e-15 0)
(3 1.96504e-15 0)
(3 1.1959e-15 0)
(3 1.21235e-15 0)
(3 3.91706e-16 0)
(3 -2.51584e-15 0)
(3 -3.20791e-15 0)
(3 -3.47312e-15 0)
(3 -3.28454e-15 0)
(3 -5.4246e-15 0)
(3 -4.71075e-15 0)
(3 -1.88636e-15 0)
(3 1.77581e-15 0)
(3 2.84729e-15 0)
(3 2.02388e-15 0)
(3 2.21018e-15 0)
(3 2.19052e-15 0)
(3 1.33742e-15 0)
(3 1.33701e-15 0)
(3 2.39341e-15 0)
(3 1.20842e-15 0)
(3 9.0812e-16 0)
(3 1.68788e-15 0)
(3 2.48826e-15 0)
(3 2.51546e-15 0)
(3 2.38718e-15 0)
(3 2.31955e-15 0)
(3 2.14907e-15 0)
(3 2.296e-15 0)
(3 2.0725e-15 0)
(3 1.60192e-15 0)
(3 1.17802e-15 0)
(3 1.60385e-17 0)
(3 7.55273e-16 0)
(3 1.51156e-15 0)
(3 1.71156e-15 0)
(3 1.02595e-15 0)
(3 3.05201e-16 0)
(3 -1.34007e-15 0)
(3 -1.92163e-15 0)
(3 -3.18133e-15 0)
(3 -3.76065e-15 0)
(3 -3.88727e-15 0)
(3 -4.03819e-15 0)
(3 -4.27887e-15 0)
(3 -4.02381e-15 0)
(3 8.61933e-17 0)
(3 8.06512e-17 0)
(3 2.34335e-16 0)
(3 3.39814e-16 0)
(3 3.21729e-16 0)
(3 5.41685e-16 0)
(3 7.88584e-16 0)
(3 6.29625e-16 0)
(3 9.2344e-16 0)
(3 7.56526e-16 0)
(3 8.10532e-16 0)
(3 5.60252e-16 0)
(3 4.28597e-16 0)
(3 4.64402e-16 0)
(3 4.64616e-16 0)
(3 -3.65398e-16 0)
(3 -5.04369e-16 0)
(3 5.35062e-17 0)
(3 6.37759e-16 0)
(3 8.05911e-16 0)
(3 7.35161e-16 0)
(3 8.42387e-16 0)
(3 4.2529e-16 0)
(3 8.52667e-16 0)
(3 2.63796e-15 0)
(3 3.25082e-15 0)
(3 2.93343e-15 0)
(3 2.35674e-15 0)
(3 1.59814e-15 0)
(3 1.69663e-15 0)
(3 1.92931e-15 0)
(3 1.75134e-15 0)
(3 1.90122e-15 0)
(3 1.25275e-15 0)
(3 4.79105e-16 0)
(3 7.12653e-16 0)
(3 3.00905e-16 0)
(3 -8.21274e-16 0)
(3 1.20215e-15 0)
(3 1.85497e-15 0)
(3 3.10295e-15 0)
(3 2.11694e-15 0)
(3 1.62899e-15 0)
(3 8.72376e-16 0)
(3 -4.07066e-16 0)
(3 -1.43698e-15 0)
(3 -2.64198e-15 0)
(3 -2.70559e-15 0)
(3 -2.35953e-15 0)
(3 -1.18645e-15 0)
(3 1.26129e-15 0)
(3 1.72113e-15 0)
(3 1.32748e-15 0)
(3 3.01467e-15 0)
(3 3.15746e-15 0)
(3 1.12022e-15 0)
(3 1.17991e-15 0)
(3 2.80036e-16 0)
(3 -1.20776e-15 0)
(3 -2.20612e-15 0)
(3 -1.66165e-15 0)
(3 -1.96823e-15 0)
(3 -7.57675e-16 0)
(3 4.83232e-16 0)
(3 1.05079e-15 0)
(3 8.03416e-16 0)
(3 4.28769e-16 0)
(3 -2.89879e-17 0)
(3 -1.00037e-15 0)
(3 -4.90438e-16 0)
(3 2.77142e-15 0)
(3 3.20584e-15 0)
(3 3.98324e-15 0)
(3 4.38848e-15 0)
(3 3.88156e-15 0)
(3 3.0364e-15 0)
(3 2.67668e-15 0)
(3 2.37242e-15 0)
(3 1.76569e-15 0)
(3 6.57282e-16 0)
(3 3.12162e-16 0)
(3 -4.53201e-16 0)
(3 -2.23781e-15 0)
(3 -2.42119e-15 0)
(3 -2.05859e-15 0)
(3 -2.19585e-15 0)
(3 -1.71253e-15 0)
(3 -1.04227e-15 0)
(3 -5.72437e-16 0)
(3 -1.20566e-15 0)
(3 -2.73384e-15 0)
(3 -4.03619e-15 0)
(3 -6.06622e-15 0)
(3 -7.72078e-15 0)
(3 -7.03395e-15 0)
(3 -6.21617e-15 0)
(3 2.31596e-16 0)
(3 1.11494e-16 0)
(3 4.22792e-17 0)
(3 -1.02158e-16 0)
(3 7.93426e-17 0)
(3 4.83483e-16 0)
(3 6.42099e-16 0)
(3 7.25236e-16 0)
(3 6.28386e-16 0)
(3 2.0974e-16 0)
(3 2.39535e-16 0)
(3 2.4009e-16 0)
(3 8.22764e-17 0)
(3 -4.17934e-16 0)
(3 -5.47149e-18 0)
(3 3.90904e-16 0)
(3 2.91991e-16 0)
(3 -1.08721e-16 0)
(3 -1.82055e-16 0)
(3 1.79947e-16 0)
(3 1.5452e-15 0)
(3 9.78758e-16 0)
(3 -2.67864e-16 0)
(3 -6.65643e-16 0)
(3 -2.70657e-17 0)
(3 -1.22201e-16 0)
(3 -5.12893e-16 0)
(3 -6.0497e-17 0)
(3 3.51054e-16 0)
(3 7.88016e-16 0)
(3 1.36165e-15 0)
(3 2.30847e-15 0)
(3 2.29192e-15 0)
(3 1.5895e-15 0)
(3 1.23095e-15 0)
(3 1.4989e-15 0)
(3 1.92023e-15 0)
(3 2.00156e-15 0)
(3 1.00668e-15 0)
(3 6.82546e-16 0)
(3 7.54265e-16 0)
(3 -2.36152e-16 0)
(3 -2.63946e-16 0)
(3 -6.5055e-16 0)
(3 -1.47034e-15 0)
(3 -2.24783e-15 0)
(3 -2.40052e-15 0)
(3 -2.40799e-15 0)
(3 -2.239e-15 0)
(3 -1.72209e-15 0)
(3 -1.04311e-15 0)
(3 6.6028e-16 0)
(3 1.92813e-15 0)
(3 3.60994e-15 0)
(3 3.43742e-15 0)
(3 2.8563e-15 0)
(3 2.78625e-15 0)
(3 2.61287e-15 0)
(3 4.38298e-16 0)
(3 -2.24008e-15 0)
(3 -2.34477e-15 0)
(3 -2.94807e-15 0)
(3 -2.07849e-15 0)
(3 -1.34566e-15 0)
(3 4.50661e-16 0)
(3 8.62511e-16 0)
(3 1.18617e-15 0)
(3 -5.1337e-16 0)
(3 -1.53917e-15 0)
(3 -1.20024e-15 0)
(3 -1.69914e-15 0)
(3 -1.11981e-15 0)
(3 -9.95134e-16 0)
(3 -6.5009e-16 0)
(3 1.76923e-15 0)
(3 2.23798e-15 0)
(3 1.17582e-15 0)
(3 -4.71444e-16 0)
(3 -6.63918e-16 0)
(3 -1.96094e-15 0)
(3 -2.42669e-15 0)
(3 -2.65559e-15 0)
(3 -2.49984e-15 0)
(3 -2.76642e-15 0)
(3 -3.77572e-15 0)
(3 -4.49097e-15 0)
(3 -4.08918e-15 0)
(3 -3.74775e-15 0)
(3 -3.81124e-15 0)
(3 -4.11788e-15 0)
(3 -3.96103e-15 0)
(3 -3.66957e-15 0)
(3 -3.46969e-15 0)
(3 -4.99971e-15 0)
(3 -5.11244e-15 0)
(3 -5.61906e-15 0)
(3 -2.27496e-16 0)
(3 -2.66137e-16 0)
(3 -5.15872e-16 0)
(3 -5.18276e-16 0)
(3 1.51007e-16 0)
(3 6.58796e-16 0)
(3 8.76866e-16 0)
(3 1.1066e-15 0)
(3 9.22826e-16 0)
(3 8.86762e-16 0)
(3 6.59149e-16 0)
(3 8.18666e-16 0)
(3 2.29549e-15 0)
(3 2.62949e-15 0)
(3 2.85159e-15 0)
(3 2.82835e-15 0)
(3 2.29258e-15 0)
(3 1.40898e-15 0)
(3 8.68745e-16 0)
(3 1.09801e-15 0)
(3 9.17343e-16 0)
(3 4.82897e-16 0)
(3 3.72591e-16 0)
(3 -1.90523e-16 0)
(3 -2.79647e-15 0)
(3 -3.24791e-15 0)
(3 -2.96804e-15 0)
(3 -2.35149e-15 0)
(3 6.25554e-17 0)
(3 1.30969e-15 0)
(3 2.55244e-15 0)
(3 3.62507e-15 0)
(3 4.17928e-15 0)
(3 4.05905e-15 0)
(3 3.1476e-15 0)
(3 2.48688e-15 0)
(3 2.89988e-15 0)
(3 3.29185e-15 0)
(3 6.50916e-16 0)
(3 -4.90771e-16 0)
(3 -1.64337e-15 0)
(3 -1.55693e-15 0)
(3 -1.34404e-15 0)
(3 -7.70929e-16 0)
(3 -1.22851e-15 0)
(3 -1.22315e-15 0)
(3 -1.53224e-15 0)
(3 -1.81901e-15 0)
(3 -1.51303e-15 0)
(3 -1.31322e-15 0)
(3 -7.76443e-16 0)
(3 7.38015e-16 0)
(3 1.40827e-15 0)
(3 3.59229e-16 0)
(3 -1.00711e-15 0)
(3 -1.20154e-15 0)
(3 -1.08735e-15 0)
(3 1.07501e-15 0)
(3 1.77649e-15 0)
(3 4.40071e-16 0)
(3 -1.29538e-15 0)
(3 -2.55837e-15 0)
(3 -2.26312e-15 0)
(3 -1.35908e-15 0)
(3 -3.79994e-16 0)
(3 7.46709e-17 0)
(3 5.76604e-17 0)
(3 1.29703e-16 0)
(3 -6.38939e-16 0)
(3 -1.56099e-15 0)
(3 -2.62511e-15 0)
(3 -2.79976e-15 0)
(3 -3.26e-15 0)
(3 -3.41849e-15 0)
(3 -2.89315e-15 0)
(3 -1.90473e-15 0)
(3 -7.70568e-16 0)
(3 -1.10889e-15 0)
(3 -2.58316e-15 0)
(3 -2.62656e-15 0)
(3 -1.95143e-15 0)
(3 -1.35767e-15 0)
(3 -1.31069e-15 0)
(3 -2.07022e-15 0)
(3 -4.461e-15 0)
(3 -4.74464e-15 0)
(3 -4.08031e-15 0)
(3 -3.76173e-15 0)
(3 -3.82068e-15 0)
(3 -3.4794e-15 0)
(3 -4.10505e-15 0)
(3 -3.35136e-15 0)
(3 -3.06956e-15 0)
(3 -3.45992e-15 0)
(3 -3.80684e-15 0)
(3 -5.37105e-15 0)
(3 -1.4861e-16 0)
(3 6.76793e-17 0)
(3 -2.75235e-16 0)
(3 -1.2204e-16 0)
(3 2.14774e-17 0)
(3 8.59491e-17 0)
(3 4.77806e-16 0)
(3 6.4699e-16 0)
(3 1.01156e-15 0)
(3 1.66086e-15 0)
(3 1.93323e-15 0)
(3 1.88361e-15 0)
(3 2.15999e-15 0)
(3 2.34041e-15 0)
(3 2.28487e-15 0)
(3 2.36623e-15 0)
(3 2.18342e-15 0)
(3 1.60881e-15 0)
(3 1.22485e-15 0)
(3 9.12682e-16 0)
(3 4.78763e-17 0)
(3 -2.09643e-15 0)
(3 -2.60914e-15 0)
(3 -2.6716e-15 0)
(3 -1.31496e-15 0)
(3 -3.67774e-17 0)
(3 3.24866e-16 0)
(3 9.81254e-16 0)
(3 2.97802e-15 0)
(3 4.42219e-15 0)
(3 5.33207e-15 0)
(3 5.36505e-15 0)
(3 5.05976e-15 0)
(3 4.93399e-15 0)
(3 4.88164e-15 0)
(3 3.62845e-15 0)
(3 2.30344e-15 0)
(3 2.59697e-15 0)
(3 1.79444e-15 0)
(3 8.25796e-16 0)
(3 1.90573e-16 0)
(3 -8.18882e-16 0)
(3 -5.74668e-16 0)
(3 -2.38294e-16 0)
(3 -1.98977e-16 0)
(3 3.87372e-16 0)
(3 3.11296e-16 0)
(3 1.19157e-16 0)
(3 3.41407e-16 0)
(3 5.80494e-16 0)
(3 3.47654e-16 0)
(3 7.64843e-16 0)
(3 2.21227e-15 0)
(3 2.23138e-15 0)
(3 1.79541e-15 0)
(3 5.0535e-16 0)
(3 -1.36435e-16 0)
(3 2.503e-16 0)
(3 1.0888e-16 0)
(3 -2.25067e-16 0)
(3 -7.98861e-16 0)
(3 -1.18904e-15 0)
(3 -2.01216e-15 0)
(3 -3.81954e-15 0)
(3 -6.19771e-15 0)
(3 -5.96012e-15 0)
(3 -4.97037e-15 0)
(3 -4.07176e-15 0)
(3 -3.68575e-15 0)
(3 -4.96409e-15 0)
(3 -4.04075e-15 0)
(3 -4.06293e-15 0)
(3 -4.16869e-15 0)
(3 -4.2344e-15 0)
(3 -4.23291e-15 0)
(3 -3.0921e-15 0)
(3 -1.19852e-15 0)
(3 -4.70626e-17 0)
(3 -4.48091e-16 0)
(3 -1.10607e-15 0)
(3 -1.0036e-15 0)
(3 -9.26876e-16 0)
(3 -1.04245e-15 0)
(3 -2.66103e-15 0)
(3 -3.8286e-15 0)
(3 -3.85513e-15 0)
(3 -2.8626e-15 0)
(3 -2.23962e-15 0)
(3 -2.06148e-15 0)
(3 -3.58284e-15 0)
(3 -5.57478e-15 0)
(3 -5.49709e-15 0)
(3 -3.5904e-15 0)
(3 -3.08069e-15 0)
(3 -4.56035e-15 0)
(3 -4.28075e-15 0)
(3 1.20951e-16 0)
(3 1.38919e-16 0)
(3 1.91612e-16 0)
(3 2.79353e-16 0)
(3 2.06387e-16 0)
(3 2.73367e-17 0)
(3 2.6282e-16 0)
(3 5.11494e-16 0)
(3 1.00601e-15 0)
(3 1.1634e-15 0)
(3 1.26151e-15 0)
(3 8.36849e-16 0)
(3 4.72321e-16 0)
(3 8.17333e-16 0)
(3 1.03146e-15 0)
(3 1.30215e-15 0)
(3 1.38998e-15 0)
(3 1.09006e-15 0)
(3 7.65465e-16 0)
(3 -4.34999e-16 0)
(3 -6.60817e-16 0)
(3 -8.34839e-16 0)
(3 -3.77822e-16 0)
(3 4.89854e-16 0)
(3 4.45173e-16 0)
(3 6.69523e-16 0)
(3 1.21616e-15 0)
(3 1.8366e-15 0)
(3 2.84112e-15 0)
(3 3.32882e-15 0)
(3 2.78074e-15 0)
(3 3.1462e-15 0)
(3 2.58995e-15 0)
(3 1.80478e-15 0)
(3 1.8092e-15 0)
(3 1.18056e-15 0)
(3 5.75826e-16 0)
(3 9.64289e-16 0)
(3 9.90201e-16 0)
(3 1.17233e-15 0)
(3 1.28844e-15 0)
(3 1.15065e-15 0)
(3 5.97074e-16 0)
(3 1.15121e-16 0)
(3 2.65684e-16 0)
(3 9.63269e-16 0)
(3 3.41026e-16 0)
(3 5.71544e-16 0)
(3 1.45906e-15 0)
(3 3.00944e-15 0)
(3 2.7349e-15 0)
(3 2.42057e-15 0)
(3 3.03997e-15 0)
(3 3.75556e-15 0)
(3 5.37464e-15 0)
(3 3.7933e-15 0)
(3 2.18173e-15 0)
(3 8.84387e-16 0)
(3 -4.96617e-16 0)
(3 -3.04878e-18 0)
(3 1.43546e-16 0)
(3 -5.01004e-16 0)
(3 -1.98562e-15 0)
(3 -4.07524e-15 0)
(3 -6.02181e-15 0)
(3 -6.08358e-15 0)
(3 -6.06836e-15 0)
(3 -5.0192e-15 0)
(3 -4.41147e-15 0)
(3 -4.07042e-15 0)
(3 -4.15832e-15 0)
(3 -3.46279e-15 0)
(3 -2.63802e-15 0)
(3 -2.11984e-15 0)
(3 -1.42001e-15 0)
(3 -1.56486e-15 0)
(3 -1.92816e-15 0)
(3 -1.29655e-15 0)
(3 5.48324e-16 0)
(3 1.42083e-15 0)
(3 1.37443e-15 0)
(3 8.45555e-16 0)
(3 -2.21168e-16 0)
(3 -3.35e-15 0)
(3 -4.20294e-15 0)
(3 -3.91885e-15 0)
(3 -3.48483e-15 0)
(3 -3.04082e-15 0)
(3 -2.92184e-15 0)
(3 -2.16271e-15 0)
(3 -7.34533e-16 0)
(3 1.56614e-15 0)
(3 1.49877e-15 0)
(3 4.08296e-16 0)
(3 -1.80787e-15 0)
(3 -3.6427e-15 0)
(3 -1.83013e-16 0)
(3 2.18008e-17 0)
(3 3.01455e-16 0)
(3 1.35288e-16 0)
(3 1.90665e-16 0)
(3 5.101e-16 0)
(3 4.72113e-16 0)
(3 6.83619e-16 0)
(3 1.1674e-15 0)
(3 1.45392e-15 0)
(3 1.5885e-15 0)
(3 1.51656e-15 0)
(3 8.0954e-16 0)
(3 2.98443e-16 0)
(3 4.04969e-17 0)
(3 6.22813e-16 0)
(3 8.62276e-16 0)
(3 8.54241e-16 0)
(3 6.33093e-16 0)
(3 2.70331e-16 0)
(3 4.94367e-16 0)
(3 1.20157e-15 0)
(3 2.09159e-15 0)
(3 1.97505e-15 0)
(3 1.90397e-15 0)
(3 1.26448e-15 0)
(3 1.50369e-15 0)
(3 1.14802e-15 0)
(3 9.48103e-16 0)
(3 -5.37524e-16 0)
(3 -5.74563e-16 0)
(3 -2.96787e-16 0)
(3 -8.48936e-18 0)
(3 -1.24315e-15 0)
(3 -1.42409e-15 0)
(3 -8.8461e-16 0)
(3 2.57742e-16 0)
(3 5.15668e-16 0)
(3 6.15391e-16 0)
(3 9.24604e-16 0)
(3 1.55563e-15 0)
(3 2.08368e-15 0)
(3 7.52053e-16 0)
(3 -3.66578e-16 0)
(3 -3.12712e-16 0)
(3 -5.30424e-16 0)
(3 -6.41169e-16 0)
(3 -3.40843e-16 0)
(3 1.88249e-15 0)
(3 3.25073e-15 0)
(3 3.46609e-15 0)
(3 2.86074e-15 0)
(3 2.1076e-15 0)
(3 2.01286e-15 0)
(3 1.92396e-15 0)
(3 1.56079e-15 0)
(3 1.47319e-15 0)
(3 1.72314e-15 0)
(3 6.48227e-16 0)
(3 3.31101e-16 0)
(3 3.24201e-16 0)
(3 -2.44953e-15 0)
(3 -3.69968e-15 0)
(3 -5.24997e-15 0)
(3 -7.12929e-15 0)
(3 -8.37305e-15 0)
(3 -9.09241e-15 0)
(3 -8.18939e-15 0)
(3 -7.23268e-15 0)
(3 -5.95898e-15 0)
(3 -4.63768e-15 0)
(3 -3.56614e-15 0)
(3 -1.49603e-15 0)
(3 -8.46912e-16 0)
(3 -7.46061e-16 0)
(3 -1.79696e-15 0)
(3 -3.95028e-15 0)
(3 -4.76328e-15 0)
(3 -3.57866e-15 0)
(3 -1.25501e-15 0)
(3 -4.62507e-16 0)
(3 -4.39545e-16 0)
(3 -8.75425e-16 0)
(3 -1.87751e-15 0)
(3 -2.2266e-15 0)
(3 -2.25793e-15 0)
(3 -2.96224e-15 0)
(3 -3.09474e-15 0)
(3 -3.57765e-15 0)
(3 -3.59509e-15 0)
(3 -2.96429e-15 0)
(3 -3.16944e-15 0)
(3 -3.06095e-15 0)
(3 -3.09754e-15 0)
(3 -2.27565e-15 0)
(3 -3.27191e-15 0)
(3 3.62294e-18 0)
(3 7.19756e-17 0)
(3 2.54775e-16 0)
(3 6.86018e-17 0)
(3 -2.06609e-17 0)
(3 3.63465e-16 0)
(3 8.01907e-16 0)
(3 1.31924e-15 0)
(3 1.47512e-15 0)
(3 1.31751e-15 0)
(3 1.32536e-15 0)
(3 1.06852e-15 0)
(3 5.57261e-16 0)
(3 8.03591e-17 0)
(3 -7.73957e-16 0)
(3 -1.03605e-15 0)
(3 -1.06265e-16 0)
(3 1.84203e-16 0)
(3 5.92467e-16 0)
(3 1.19302e-15 0)
(3 1.15413e-15 0)
(3 1.34669e-15 0)
(3 1.43384e-15 0)
(3 8.3738e-16 0)
(3 6.86073e-16 0)
(3 7.8344e-16 0)
(3 7.50167e-16 0)
(3 6.79242e-16 0)
(3 -3.78441e-16 0)
(3 -1.22529e-15 0)
(3 -1.82437e-15 0)
(3 -1.65313e-15 0)
(3 -4.00356e-16 0)
(3 -4.17236e-16 0)
(3 -1.00476e-15 0)
(3 -7.75367e-16 0)
(3 -4.82649e-16 0)
(3 -3.0217e-16 0)
(3 1.39355e-17 0)
(3 9.05099e-17 0)
(3 8.49099e-16 0)
(3 1.57715e-15 0)
(3 1.74696e-15 0)
(3 6.41889e-16 0)
(3 -8.3221e-16 0)
(3 -1.47897e-15 0)
(3 -1.13098e-15 0)
(3 -3.45553e-16 0)
(3 5.24839e-16 0)
(3 1.248e-15 0)
(3 1.48925e-15 0)
(3 1.57466e-15 0)
(3 3.6156e-17 0)
(3 -7.05177e-16 0)
(3 1.29818e-16 0)
(3 9.35727e-16 0)
(3 7.17618e-16 0)
(3 -6.6481e-17 0)
(3 -1.43735e-15 0)
(3 -1.82349e-15 0)
(3 -2.67089e-15 0)
(3 -3.52972e-15 0)
(3 -4.85503e-15 0)
(3 -6.10218e-15 0)
(3 -7.40087e-15 0)
(3 -9.94918e-15 0)
(3 -8.42071e-15 0)
(3 -7.49688e-15 0)
(3 -6.63787e-15 0)
(3 -5.98416e-15 0)
(3 -3.70596e-15 0)
(3 -2.28302e-15 0)
(3 -1.83613e-15 0)
(3 -2.09391e-15 0)
(3 -2.78828e-15 0)
(3 -3.28784e-15 0)
(3 -3.52186e-15 0)
(3 -4.00985e-15 0)
(3 -2.99765e-15 0)
(3 -2.44622e-15 0)
(3 -2.19706e-15 0)
(3 -3.02446e-15 0)
(3 -2.15172e-15 0)
(3 -7.60321e-16 0)
(3 6.83516e-16 0)
(3 -1.09916e-15 0)
(3 -2.17348e-15 0)
(3 -1.24036e-15 0)
(3 -3.31246e-16 0)
(3 -1.36298e-15 0)
(3 -2.64159e-15 0)
(3 -4.34144e-15 0)
(3 -4.68919e-15 0)
(3 -3.95631e-15 0)
(3 -2.16888e-15 0)
(3 -1.93422e-15 0)
(3 4.49223e-16 0)
(3 7.94651e-16 0)
(3 7.3338e-16 0)
(3 6.87589e-16 0)
(3 5.25924e-16 0)
(3 7.7533e-16 0)
(3 1.53946e-15 0)
(3 1.95409e-15 0)
(3 1.59242e-15 0)
(3 7.52189e-16 0)
(3 -9.23329e-16 0)
(3 -2.01769e-15 0)
(3 -1.61209e-15 0)
(3 -6.00508e-16 0)
(3 -2.67443e-16 0)
(3 -5.31484e-16 0)
(3 -4.95229e-16 0)
(3 1.19712e-16 0)
(3 4.16927e-16 0)
(3 5.24286e-16 0)
(3 2.56519e-16 0)
(3 -2.7917e-16 0)
(3 -3.56821e-16 0)
(3 -2.60091e-16 0)
(3 -3.39131e-16 0)
(3 1.09535e-16 0)
(3 4.90336e-16 0)
(3 4.12837e-16 0)
(3 -1.24426e-16 0)
(3 -1.27646e-15 0)
(3 -1.14677e-15 0)
(3 -4.64873e-16 0)
(3 1.08443e-15 0)
(3 1.67899e-15 0)
(3 7.5308e-16 0)
(3 6.19701e-16 0)
(3 4.08172e-16 0)
(3 1.10699e-16 0)
(3 -4.33094e-17 0)
(3 1.43759e-16 0)
(3 -4.88416e-16 0)
(3 6.08463e-16 0)
(3 1.93698e-15 0)
(3 9.85784e-16 0)
(3 -3.84999e-16 0)
(3 -1.39814e-15 0)
(3 -8.45929e-16 0)
(3 4.35173e-16 0)
(3 2.26607e-16 0)
(3 -1.28733e-16 0)
(3 -8.96868e-16 0)
(3 -1.58542e-15 0)
(3 -1.97854e-15 0)
(3 -2.01074e-15 0)
(3 -1.33923e-15 0)
(3 -5.61818e-16 0)
(3 9.55323e-16 0)
(3 -5.71197e-16 0)
(3 -1.18037e-15 0)
(3 -1.1004e-15 0)
(3 -2.2599e-15 0)
(3 -4.91551e-15 0)
(3 -5.61307e-15 0)
(3 -5.08542e-15 0)
(3 -5.13872e-15 0)
(3 -5.14622e-15 0)
(3 -3.8546e-15 0)
(3 -3.6339e-15 0)
(3 -3.75145e-15 0)
(3 -3.48967e-15 0)
(3 -2.32626e-15 0)
(3 -1.17307e-15 0)
(3 -1.59788e-15 0)
(3 -2.03862e-15 0)
(3 -1.88972e-15 0)
(3 -1.62223e-15 0)
(3 -1.6549e-15 0)
(3 -2.18323e-15 0)
(3 -1.40223e-15 0)
(3 -1.41649e-15 0)
(3 -1.59889e-15 0)
(3 -1.44249e-15 0)
(3 -7.39885e-16 0)
(3 -1.90611e-16 0)
(3 1.06304e-15 0)
(3 1.06373e-15 0)
(3 4.8208e-16 0)
(3 9.21107e-16 0)
(3 1.66389e-15 0)
(3 1.14007e-15 0)
(3 1.54679e-15 0)
(3 9.52108e-16 0)
(3 4.13504e-18 0)
(3 1.30299e-16 0)
(3 3.05911e-17 0)
(3 -1.00197e-15 0)
(3 1.56177e-17 0)
(3 9.18778e-17 0)
(3 1.02174e-16 0)
(3 1.47719e-17 0)
(3 3.21194e-17 0)
(3 -3.91371e-16 0)
(3 -6.90757e-16 0)
(3 -1.15405e-15 0)
(3 -1.50089e-15 0)
(3 -1.47985e-15 0)
(3 -1.82572e-15 0)
(3 -1.57916e-15 0)
(3 -6.07992e-16 0)
(3 -4.81213e-16 0)
(3 -4.81383e-16 0)
(3 -5.83227e-16 0)
(3 -9.22157e-16 0)
(3 -8.72865e-16 0)
(3 -9.78859e-16 0)
(3 -1.17589e-15 0)
(3 -1.0343e-15 0)
(3 -1.1803e-15 0)
(3 -1.57601e-15 0)
(3 -1.03661e-15 0)
(3 -3.18334e-16 0)
(3 1.9126e-17 0)
(3 2.29495e-16 0)
(3 2.03846e-16 0)
(3 1.29659e-16 0)
(3 9.45621e-17 0)
(3 7.61153e-16 0)
(3 9.57257e-16 0)
(3 1.41983e-15 0)
(3 1.64177e-15 0)
(3 1.22736e-15 0)
(3 1.69398e-15 0)
(3 1.99713e-15 0)
(3 1.7702e-15 0)
(3 1.45166e-15 0)
(3 1.10384e-15 0)
(3 6.6556e-17 0)
(3 -1.15006e-15 0)
(3 -1.5896e-15 0)
(3 -1.35997e-15 0)
(3 -1.45536e-15 0)
(3 -1.39572e-15 0)
(3 -1.24737e-15 0)
(3 -6.394e-16 0)
(3 -6.95035e-16 0)
(3 -1.04773e-15 0)
(3 -1.74718e-15 0)
(3 -1.60785e-15 0)
(3 1.80147e-16 0)
(3 4.95399e-16 0)
(3 -3.10786e-16 0)
(3 -1.71929e-16 0)
(3 -7.71681e-17 0)
(3 7.35539e-16 0)
(3 1.98657e-15 0)
(3 1.87688e-15 0)
(3 3.05802e-16 0)
(3 -1.92176e-15 0)
(3 -2.9066e-15 0)
(3 -2.64215e-15 0)
(3 -1.9133e-15 0)
(3 -6.20764e-16 0)
(3 -7.90696e-16 0)
(3 -1.54575e-15 0)
(3 -2.23246e-15 0)
(3 -1.7473e-15 0)
(3 -7.30408e-16 0)
(3 -6.21063e-16 0)
(3 -8.72782e-16 0)
(3 -6.99292e-16 0)
(3 -4.15569e-16 0)
(3 -7.49113e-16 0)
(3 -6.28132e-16 0)
(3 -4.21375e-16 0)
(3 -2.18747e-15 0)
(3 -2.39256e-15 0)
(3 -2.41746e-15 0)
(3 -1.79617e-15 0)
(3 -9.98926e-16 0)
(3 3.33336e-16 0)
(3 9.35238e-16 0)
(3 2.04431e-15 0)
(3 1.72598e-15 0)
(3 1.41931e-15 0)
(3 1.19597e-15 0)
(3 2.30257e-15 0)
(3 2.67406e-15 0)
(3 2.78231e-15 0)
(3 3.5543e-15 0)
(3 3.81536e-15 0)
(3 3.61993e-15 0)
(3 1.93562e-15 0)
(3 -5.40153e-17 0)
(3 -6.83459e-16 0)
(3 -1.0263e-15 0)
(3 -1.08686e-15 0)
(3 -1.49546e-15 0)
(3 -1.75216e-15 0)
(3 -2.41815e-15 0)
(3 -3.04253e-15 0)
(3 -2.65676e-15 0)
(3 -2.79536e-15 0)
(3 -1.90218e-15 0)
(3 -7.7194e-16 0)
(3 -9.73828e-17 0)
(3 -5.74219e-16 0)
(3 -9.69163e-16 0)
(3 -8.83662e-16 0)
(3 -1.54313e-15 0)
(3 -1.53037e-15 0)
(3 -1.38686e-15 0)
(3 -1.03026e-15 0)
(3 -1.10839e-15 0)
(3 -5.86055e-16 0)
(3 -1.07784e-16 0)
(3 2.33566e-16 0)
(3 4.00169e-16 0)
(3 1.5328e-16 0)
(3 5.29956e-17 0)
(3 7.17337e-16 0)
(3 1.30027e-15 0)
(3 2.23735e-15 0)
(3 2.34774e-15 0)
(3 1.91591e-15 0)
(3 1.51618e-15 0)
(3 1.77976e-15 0)
(3 1.71531e-15 0)
(3 9.79211e-16 0)
(3 5.99299e-16 0)
(3 1.01285e-15 0)
(3 1.13839e-15 0)
(3 8.50162e-16 0)
(3 2.60209e-16 0)
(3 -1.18834e-15 0)
(3 -1.75302e-15 0)
(3 -1.61084e-15 0)
(3 -1.47841e-15 0)
(3 -7.82437e-16 0)
(3 -5.04163e-16 0)
(3 -1.54594e-15 0)
(3 -1.70419e-15 0)
(3 -1.35702e-15 0)
(3 6.03536e-16 0)
(3 1.98896e-15 0)
(3 3.16544e-15 0)
(3 3.30809e-15 0)
(3 3.28907e-15 0)
(3 2.64377e-15 0)
(3 1.14535e-15 0)
(3 1.18384e-15 0)
(3 1.86598e-15 0)
(3 2.20465e-15 0)
(3 2.10637e-15 0)
(3 1.63302e-15 0)
(3 2.1503e-16 0)
(3 -6.11964e-16 0)
(3 -4.86013e-16 0)
(3 2.20657e-16 0)
(3 4.60952e-16 0)
(3 -5.05734e-17 0)
(3 1.64087e-16 0)
(3 -1.41721e-16 0)
(3 -5.44157e-17 0)
(3 -4.47696e-16 0)
(3 -9.75305e-16 0)
(3 -1.47277e-15 0)
(3 -1.70274e-15 0)
(3 -1.8254e-15 0)
(3 5.43681e-16 0)
(3 1.56646e-15 0)
(3 1.09572e-15 0)
(3 -1.08478e-16 0)
(3 -7.27033e-16 0)
(3 -6.63756e-16 0)
(3 -1.20374e-15 0)
(3 9.37126e-17 0)
(3 7.70044e-16 0)
(3 5.02816e-17 0)
(3 -1.55432e-16 0)
(3 -1.15425e-15 0)
(3 -1.32113e-15 0)
(3 7.61303e-17 0)
(3 1.22578e-15 0)
(3 1.78312e-15 0)
(3 2.74813e-15 0)
(3 4.62428e-15 0)
(3 5.45108e-15 0)
(3 5.62065e-15 0)
(3 -9.97217e-19 0)
(3 1.60661e-16 0)
(3 -1.68641e-16 0)
(3 -6.20439e-16 0)
(3 -9.85039e-16 0)
(3 -1.33128e-15 0)
(3 -1.9578e-15 0)
(3 -1.83689e-15 0)
(3 -1.68351e-15 0)
(3 -1.63321e-15 0)
(3 -1.29057e-15 0)
(3 -6.4834e-16 0)
(3 -6.42366e-16 0)
(3 -8.53502e-16 0)
(3 -7.88208e-16 0)
(3 -8.49082e-16 0)
(3 -8.73181e-16 0)
(3 -9.82812e-16 0)
(3 -1.164e-15 0)
(3 -6.48005e-16 0)
(3 -8.71817e-16 0)
(3 -9.58875e-17 0)
(3 7.40051e-16 0)
(3 9.82311e-16 0)
(3 1.19017e-15 0)
(3 1.03984e-15 0)
(3 1.44273e-15 0)
(3 1.80513e-15 0)
(3 2.53378e-15 0)
(3 2.91853e-15 0)
(3 2.43647e-15 0)
(3 2.14748e-15 0)
(3 1.60844e-15 0)
(3 1.5317e-15 0)
(3 2.24125e-15 0)
(3 2.10221e-15 0)
(3 1.55334e-15 0)
(3 1.08342e-15 0)
(3 6.17702e-16 0)
(3 6.86167e-16 0)
(3 7.23366e-16 0)
(3 -8.33725e-17 0)
(3 -1.07796e-15 0)
(3 -1.79231e-16 0)
(3 8.37229e-16 0)
(3 2.02185e-15 0)
(3 1.33239e-15 0)
(3 5.84243e-16 0)
(3 -4.07485e-16 0)
(3 -1.09153e-15 0)
(3 9.89675e-16 0)
(3 1.98754e-15 0)
(3 1.53635e-15 0)
(3 1.71881e-15 0)
(3 1.78184e-15 0)
(3 6.10131e-16 0)
(3 -1.02284e-16 0)