/*--------------------------------*- C++ -*----------------------------------*\
  =========                 |
  \\      /  F ield         | OpenFOAM: The Open Source CFD Toolbox
   \\    /   O peration     | Website:  https://openfoam.org
    \\  /    A nd           | Version:  7
     \\/     M anipulation  |
\*---------------------------------------------------------------------------*/
FoamFile
{
    version     2.0;
    format      ascii;
    class       volVectorField;
    location    "0.2";
    object      U;
}
// * * * * * * * * * * * * * * * * * * * * * * * * * * * * * * * * * * * * * //

dimensions      [0 1 -1 0 0 0 0];

internalField   nonuniform List<vector> 
73728
(
(3 -6.76477e-17 0)
(3 -1.7658e-16 0)
(3 -7.95898e-18 0)
(3 -1.88854e-16 0)
(3 -2.3815e-16 0)
(3 -1.00018e-16 0)
(3 1.2777e-16 0)
(3 9.38268e-16 0)
(3 1.22004e-15 0)
(3 1.61546e-15 0)
(3 1.98183e-15 0)
(3 2.53927e-15 0)
(3 3.13784e-15 0)
(3 2.94448e-15 0)
(3 2.57526e-15 0)
(3 2.19615e-15 0)
(3 1.73204e-15 0)
(3 1.45306e-15 0)
(3 1.41672e-15 0)
(3 8.61163e-16 0)
(3 6.19931e-16 0)
(3 4.90853e-16 0)
(3 3.33471e-16 0)
(3 4.47278e-17 0)
(3 -2.32852e-18 0)
(3 -1.60094e-16 0)
(3 -6.08894e-16 0)
(3 -1.10014e-15 0)
(3 -5.16983e-16 0)
(3 -9.07922e-16 0)
(3 -1.07613e-15 0)
(3 -1.23436e-15 0)
(3 -1.0655e-15 0)
(3 -8.57448e-16 0)
(3 -1.54872e-15 0)
(3 -1.64645e-15 0)
(3 -1.60037e-15 0)
(3 -8.72148e-16 0)
(3 5.64448e-17 0)
(3 2.7834e-18 0)
(3 1.60896e-15 0)
(3 3.42994e-15 0)
(3 3.15195e-15 0)
(3 3.0859e-15 0)
(3 2.79755e-15 0)
(3 2.35544e-15 0)
(3 2.50526e-15 0)
(3 2.6461e-15 0)
(3 2.42979e-15 0)
(3 1.19759e-15 0)
(3 5.68667e-16 0)
(3 2.38839e-16 0)
(3 1.44012e-16 0)
(3 2.2967e-16 0)
(3 1.31107e-15 0)
(3 1.61806e-15 0)
(3 1.95278e-15 0)
(3 1.82396e-15 0)
(3 2.08746e-15 0)
(3 1.77435e-15 0)
(3 8.16851e-16 0)
(3 2.31736e-15 0)
(3 3.12695e-15 0)
(3 1.12738e-15 0)
(3 1.11773e-16 0)
(3 -4.8422e-16 0)
(3 -2.16756e-15 0)
(3 -3.05912e-15 0)
(3 -2.67824e-15 0)
(3 -2.49557e-15 0)
(3 -1.38297e-15 0)
(3 -8.26471e-16 0)
(3 -5.02413e-16 0)
(3 -7.4578e-16 0)
(3 -8.9505e-16 0)
(3 -8.66601e-16 0)
(3 -1.40281e-15 0)
(3 -1.98643e-15 0)
(3 -1.44671e-15 0)
(3 -8.0455e-16 0)
(3 -4.52471e-17 0)
(3 1.44524e-16 0)
(3 2.14386e-16 0)
(3 2.39252e-16 0)
(3 2.88629e-16 0)
(3 3.87422e-16 0)
(3 5.84275e-16 0)
(3 1.16896e-15 0)
(3 1.33962e-15 0)
(3 1.42094e-15 0)
(3 -6.70164e-17 0)
(3 -3.30767e-16 0)
(3 -1.84286e-16 0)
(3 -1.35135e-16 0)
(3 -3.03325e-16 0)
(3 -2.24312e-15 0)
(3 -1.73233e-16 0)
(3 1.58561e-16 0)
(3 7.20614e-16 0)
(3 5.67338e-16 0)
(3 9.72104e-16 0)
(3 1.52104e-15 0)
(3 2.06942e-15 0)
(3 2.92262e-15 0)
(3 3.0492e-15 0)
(3 2.39954e-15 0)
(3 2.21476e-15 0)
(3 2.67997e-15 0)
(3 3.45279e-15 0)
(3 3.69888e-15 0)
(3 3.4151e-15 0)
(3 2.40325e-15 0)
(3 1.68966e-15 0)
(3 7.47147e-16 0)
(3 5.28135e-16 0)
(3 1.19935e-16 0)
(3 -2.15455e-16 0)
(3 -2.8515e-16 0)
(3 -3.96395e-16 0)
(3 -1.50502e-15 0)
(3 -1.36946e-15 0)
(3 -1.07534e-15 0)
(3 -1.47175e-15 0)
(3 -2.43281e-15 0)
(3 -1.96985e-15 0)
(3 -1.36369e-15 0)
(3 -1.7128e-15 0)
(3 -1.75327e-15 0)
(3 -2.21343e-15 0)
(3 -2.64165e-15 0)
(3 -2.36296e-15 0)
(3 -1.90483e-15 0)
(3 -1.37386e-15 0)
(3 -8.33431e-16 0)
(3 -6.86328e-17 0)
(3 1.08031e-15 0)
(3 3.45704e-15 0)
(3 4.46979e-15 0)
(3 4.77362e-15 0)
(3 4.85177e-15 0)
(3 3.7861e-15 0)
(3 2.63935e-15 0)
(3 2.56098e-15 0)
(3 2.78309e-15 0)
(3 3.31688e-15 0)
(3 2.93907e-15 0)
(3 1.3694e-15 0)
(3 7.41325e-16 0)
(3 4.66685e-16 0)
(3 4.94157e-16 0)
(3 1.87843e-15 0)
(3 1.81919e-15 0)
(3 1.66306e-15 0)
(3 1.14665e-15 0)
(3 1.18703e-15 0)
(3 1.24589e-15 0)
(3 1.48126e-15 0)
(3 1.86316e-15 0)
(3 1.9702e-15 0)
(3 1.16215e-15 0)
(3 -8.79691e-16 0)
(3 -2.69817e-15 0)
(3 -4.60985e-15 0)
(3 -5.00517e-15 0)
(3 -4.84401e-15 0)
(3 -4.00958e-15 0)
(3 -2.34615e-15 0)
(3 1.98276e-16 0)
(3 1.37283e-16 0)
(3 -9.99603e-16 0)
(3 -1.87451e-15 0)
(3 -1.93352e-15 0)
(3 -2.12016e-15 0)
(3 -2.52999e-15 0)
(3 -1.8027e-15 0)
(3 -7.1479e-16 0)
(3 -3.90093e-16 0)
(3 3.93729e-16 0)
(3 7.44142e-16 0)
(3 4.57891e-16 0)
(3 1.86314e-16 0)
(3 9.71476e-16 0)
(3 1.01021e-15 0)
(3 1.11582e-15 0)
(3 7.60142e-16 0)
(3 6.26284e-16 0)
(3 2.63672e-16 0)
(3 3.29221e-16 0)
(3 3.46362e-16 0)
(3 4.94396e-16 0)
(3 -7.84838e-16 0)
(3 -2.31673e-15 0)
(3 4.89428e-17 0)
(3 1.65253e-16 0)
(3 2.45573e-16 0)
(3 3.36172e-16 0)
(3 7.94524e-16 0)
(3 1.5706e-15 0)
(3 1.94003e-15 0)
(3 2.05656e-15 0)
(3 2.58851e-15 0)
(3 2.30153e-15 0)
(3 2.39727e-15 0)
(3 1.84379e-15 0)
(3 1.8998e-15 0)
(3 1.73963e-15 0)
(3 1.83016e-15 0)
(3 1.17258e-15 0)
(3 2.39816e-16 0)
(3 -1.8122e-16 0)
(3 -6.26239e-16 0)
(3 -7.44049e-16 0)
(3 -2.4749e-16 0)
(3 7.28119e-16 0)
(3 1.00406e-15 0)
(3 7.98252e-16 0)
(3 8.25986e-16 0)
(3 1.09946e-15 0)
(3 5.13105e-16 0)
(3 -1.24412e-15 0)
(3 -1.76959e-15 0)
(3 -1.2346e-15 0)
(3 -7.5919e-16 0)
(3 -1.23538e-15 0)
(3 -2.13375e-15 0)
(3 -2.94056e-15 0)
(3 -3.22909e-15 0)
(3 -3.27627e-15 0)
(3 -2.6418e-15 0)
(3 -1.83596e-15 0)
(3 -1.66186e-15 0)
(3 -5.54207e-16 0)
(3 1.27819e-16 0)
(3 8.49529e-16 0)
(3 1.67857e-15 0)
(3 2.09913e-15 0)
(3 1.48331e-15 0)
(3 3.19328e-16 0)
(3 -2.45707e-16 0)
(3 7.32896e-16 0)
(3 2.66215e-15 0)
(3 3.72117e-15 0)
(3 3.81388e-15 0)
(3 2.7956e-15 0)
(3 1.62066e-15 0)
(3 1.77716e-15 0)
(3 1.28122e-15 0)
(3 8.62799e-16 0)
(3 4.44819e-16 0)
(3 4.67112e-16 0)
(3 4.4771e-16 0)
(3 8.04539e-16 0)
(3 1.11346e-15 0)
(3 6.11768e-16 0)
(3 4.23468e-18 0)
(3 -1.23892e-15 0)
(3 -1.59546e-15 0)
(3 -1.72701e-15 0)
(3 -1.69653e-15 0)
(3 -1.54262e-15 0)
(3 -1.3697e-15 0)
(3 -1.84185e-15 0)
(3 -2.5166e-15 0)
(3 -2.30322e-15 0)
(3 -2.61595e-15 0)
(3 -2.79974e-15 0)
(3 -3.40846e-15 0)
(3 -3.55336e-15 0)
(3 -3.43279e-15 0)
(3 -3.10739e-15 0)
(3 -2.00588e-15 0)
(3 -1.70085e-15 0)
(3 -1.53849e-15 0)
(3 -6.85583e-16 0)
(3 4.31647e-17 0)
(3 2.02394e-16 0)
(3 6.0045e-16 0)
(3 9.63354e-16 0)
(3 1.01242e-15 0)
(3 4.08853e-16 0)
(3 5.88131e-16 0)
(3 6.19154e-16 0)
(3 4.06305e-16 0)
(3 7.67143e-17 0)
(3 -9.33087e-16 0)
(3 -2.33507e-15 0)
(3 -2.70348e-15 0)
(3 -2.4338e-15 0)
(3 8.23412e-17 0)
(3 6.38928e-16 0)
(3 1.13627e-16 0)
(3 2.65542e-17 0)
(3 -2.1374e-16 0)
(3 -3.43363e-16 0)
(3 4.86178e-16 0)
(3 6.73615e-16 0)
(3 1.00307e-15 0)
(3 1.60548e-15 0)
(3 2.27003e-15 0)
(3 2.14139e-15 0)
(3 9.74822e-16 0)
(3 8.2529e-16 0)
(3 8.86405e-16 0)
(3 6.93431e-16 0)
(3 -1.1959e-16 0)
(3 -2.16319e-16 0)
(3 -6.26726e-16 0)
(3 -6.3959e-16 0)
(3 -4.72085e-16 0)
(3 -1.25964e-16 0)
(3 1.71903e-16 0)
(3 4.27332e-16 0)
(3 5.14035e-16 0)
(3 6.33241e-16 0)
(3 1.18316e-16 0)
(3 -6.52856e-16 0)
(3 -1.66042e-15 0)
(3 -1.64188e-15 0)
(3 -1.42767e-15 0)
(3 -2.2458e-15 0)
(3 -2.67745e-15 0)
(3 -3.00545e-15 0)
(3 -3.87027e-15 0)
(3 -3.64698e-15 0)
(3 -2.47946e-15 0)
(3 -1.8128e-15 0)
(3 -1.07703e-15 0)
(3 -1.54296e-15 0)
(3 -1.23112e-15 0)
(3 -1.00275e-15 0)
(3 -8.92325e-16 0)
(3 -6.82789e-16 0)
(3 -7.6335e-16 0)
(3 -8.36417e-16 0)
(3 -9.52194e-16 0)
(3 -8.74855e-17 0)
(3 1.61822e-15 0)
(3 2.40185e-15 0)
(3 3.27883e-15 0)
(3 3.1568e-15 0)
(3 3.38823e-15 0)
(3 3.70975e-15 0)
(3 3.37132e-15 0)
(3 2.02705e-15 0)
(3 8.58142e-16 0)
(3 2.4064e-16 0)
(3 1.32865e-16 0)
(3 -7.3856e-17 0)
(3 -3.14946e-16 0)
(3 3.72254e-16 0)
(3 1.64982e-17 0)
(3 -1.04107e-15 0)
(3 -1.64226e-15 0)
(3 -2.03227e-15 0)
(3 -1.07818e-15 0)
(3 -6.67719e-16 0)
(3 -9.6694e-17 0)
(3 -1.24237e-15 0)
(3 -2.23698e-15 0)
(3 -4.1174e-15 0)
(3 -4.10403e-15 0)
(3 -3.56906e-15 0)
(3 -4.04962e-15 0)
(3 -4.30507e-15 0)
(3 -4.1202e-15 0)
(3 -3.99484e-15 0)
(3 -3.67971e-15 0)
(3 -3.30943e-15 0)
(3 -2.69001e-15 0)
(3 -2.99099e-15 0)
(3 -2.18994e-15 0)
(3 -1.43532e-15 0)
(3 4.59753e-16 0)
(3 1.13042e-15 0)
(3 1.5936e-15 0)
(3 1.40569e-15 0)
(3 2.63232e-15 0)
(3 2.60132e-15 0)
(3 1.63748e-15 0)
(3 -3.29708e-16 0)
(3 -9.19226e-16 0)
(3 -1.69153e-15 0)
(3 -1.73631e-15 0)
(3 -6.34779e-16 0)
(3 2.92226e-16 0)
(3 4.34724e-16 0)
(3 -1.057e-16 0)
(3 -2.70186e-16 0)
(3 -3.69255e-16 0)
(3 -3.3276e-16 0)
(3 -3.69074e-16 0)
(3 -1.51363e-16 0)
(3 1.34458e-16 0)
(3 7.85464e-16 0)
(3 8.75986e-16 0)
(3 1.11743e-15 0)
(3 1.17126e-15 0)
(3 1.68345e-15 0)
(3 9.96848e-16 0)
(3 5.23845e-16 0)
(3 4.09921e-16 0)
(3 9.46655e-17 0)
(3 4.19429e-16 0)
(3 5.75023e-16 0)
(3 5.21159e-16 0)
(3 1.04212e-16 0)
(3 8.56245e-17 0)
(3 -2.19214e-16 0)
(3 -9.29849e-16 0)
(3 -1.27712e-15 0)
(3 -1.33646e-15 0)
(3 -1.84014e-15 0)
(3 -1.55047e-15 0)
(3 -1.46256e-15 0)
(3 -1.22934e-15 0)
(3 -1.94412e-15 0)
(3 -2.24449e-15 0)
(3 -2.35314e-15 0)
(3 -2.37987e-15 0)
(3 -2.21177e-15 0)
(3 -2.34635e-15 0)
(3 -2.04033e-15 0)
(3 -1.29793e-15 0)
(3 -1.12385e-15 0)
(3 -9.88814e-16 0)
(3 -2.11663e-15 0)
(3 -1.92083e-15 0)
(3 -1.66618e-15 0)
(3 -7.41992e-16 0)
(3 -3.41697e-16 0)
(3 -5.60928e-16 0)
(3 -5.41283e-16 0)
(3 2.75769e-16 0)
(3 1.35004e-15 0)
(3 1.14258e-15 0)
(3 6.2226e-16 0)
(3 1.29187e-15 0)
(3 2.29843e-15 0)
(3 3.20317e-15 0)
(3 2.55997e-15 0)
(3 1.88953e-15 0)
(3 7.30746e-16 0)
(3 -4.64537e-17 0)
(3 -2.36804e-16 0)
(3 -2.877e-16 0)
(3 1.8858e-16 0)
(3 1.90571e-16 0)
(3 -7.55933e-16 0)
(3 -1.76345e-15 0)
(3 -3.35355e-15 0)
(3 -4.07617e-15 0)
(3 -3.12927e-15 0)
(3 -2.2917e-15 0)
(3 -8.92208e-16 0)
(3 -1.62151e-16 0)
(3 -4.06701e-16 0)
(3 -1.16129e-15 0)
(3 -1.48466e-15 0)
(3 -2.59609e-15 0)
(3 -2.42438e-15 0)
(3 -1.95983e-15 0)
(3 -1.42095e-15 0)
(3 -1.95716e-15 0)
(3 -1.94652e-15 0)
(3 -1.89671e-15 0)
(3 -2.26999e-15 0)
(3 -1.25765e-15 0)
(3 -1.05084e-15 0)
(3 -3.40788e-16 0)
(3 1.2668e-15 0)
(3 2.04967e-15 0)
(3 1.74432e-15 0)
(3 1.44775e-15 0)
(3 1.90798e-15 0)
(3 1.63458e-15 0)
(3 1.89295e-15 0)
(3 1.49508e-15 0)
(3 2.12197e-15 0)
(3 2.4024e-15 0)
(3 2.40591e-15 0)
(3 1.49055e-16 0)
(3 -1.28281e-16 0)
(3 -1.06148e-16 0)
(3 9.52803e-17 0)
(3 -1.59923e-16 0)
(3 -2.57315e-16 0)
(3 -1.28798e-16 0)
(3 1.7108e-16 0)
(3 1.26917e-15 0)
(3 1.41151e-15 0)
(3 1.48531e-15 0)
(3 1.69386e-15 0)
(3 2.0095e-15 0)
(3 1.54841e-15 0)
(3 1.35503e-15 0)
(3 7.02735e-16 0)
(3 2.10141e-16 0)
(3 2.63127e-16 0)
(3 1.07751e-15 0)
(3 1.80996e-15 0)
(3 2.68922e-15 0)
(3 2.9825e-15 0)
(3 2.06467e-15 0)
(3 1.70943e-15 0)
(3 4.79216e-16 0)
(3 1.80228e-16 0)
(3 1.04501e-16 0)
(3 -6.63651e-16 0)
(3 -1.10666e-15 0)
(3 -1.56994e-15 0)
(3 -1.93158e-15 0)
(3 -2.19984e-15 0)
(3 -1.84725e-15 0)
(3 -1.79934e-15 0)
(3 -1.93184e-15 0)
(3 -2.3172e-15 0)
(3 -3.3927e-15 0)
(3 -3.10322e-15 0)
(3 -2.75269e-15 0)
(3 -1.86029e-15 0)
(3 -2.09552e-15 0)
(3 -2.22386e-15 0)
(3 -2.16222e-15 0)
(3 -1.87971e-15 0)
(3 -1.1317e-15 0)
(3 -4.83371e-16 0)
(3 -7.63818e-16 0)
(3 -1.20477e-15 0)
(3 -1.15817e-15 0)
(3 -8.92074e-16 0)
(3 -2.88369e-16 0)
(3 6.84199e-16 0)
(3 1.96059e-15 0)
(3 2.47608e-15 0)
(3 2.70938e-15 0)
(3 3.32957e-15 0)
(3 3.85659e-15 0)
(3 2.65821e-15 0)
(3 1.59224e-15 0)
(3 6.23312e-16 0)
(3 -1.71485e-16 0)
(3 -1.49771e-15 0)
(3 -2.27878e-15 0)
(3 -2.42381e-15 0)
(3 -3.02875e-15 0)
(3 -3.7053e-15 0)
(3 -3.54228e-15 0)
(3 -3.12108e-15 0)
(3 -2.81422e-15 0)
(3 -2.38511e-15 0)
(3 -1.88729e-15 0)
(3 -5.31894e-16 0)
(3 -5.89026e-16 0)
(3 -6.76221e-16 0)
(3 -1.24048e-15 0)
(3 -1.77394e-16 0)
(3 5.07234e-16 0)
(3 8.80752e-16 0)
(3 8.72018e-16 0)
(3 7.88011e-16 0)
(3 8.45335e-16 0)
(3 6.01616e-16 0)
(3 4.37922e-16 0)
(3 5.29002e-16 0)
(3 9.4713e-16 0)
(3 1.57004e-15 0)
(3 1.81773e-15 0)
(3 1.07687e-15 0)
(3 6.52641e-16 0)
(3 1.90956e-15 0)
(3 2.68463e-15 0)
(3 3.02958e-15 0)
(3 3.47362e-15 0)
(3 3.3148e-15 0)
(3 2.66882e-15 0)
(3 1.40294e-15 0)
(3 -5.20556e-17 0)
(3 3.64777e-17 0)
(3 5.99908e-16 0)
(3 5.02344e-16 0)
(3 6.59778e-16 0)
(3 3.65673e-16 0)
(3 3.5965e-16 0)
(3 6.47463e-16 0)
(3 1.00676e-15 0)
(3 6.26485e-16 0)
(3 2.00278e-15 0)
(3 1.90186e-15 0)
(3 1.47284e-15 0)
(3 9.85209e-16 0)
(3 1.21733e-15 0)
(3 1.55711e-15 0)
(3 1.15213e-15 0)
(3 1.72261e-15 0)
(3 1.81291e-15 0)
(3 1.88303e-15 0)
(3 3.13185e-15 0)
(3 3.18796e-15 0)
(3 2.75358e-15 0)
(3 2.33527e-15 0)
(3 2.35724e-15 0)
(3 2.07412e-15 0)
(3 1.86628e-15 0)
(3 6.00936e-16 0)
(3 -1.09875e-15 0)
(3 -1.97076e-15 0)
(3 -2.75139e-15 0)
(3 -2.60366e-15 0)
(3 -3.21841e-15 0)
(3 -3.39062e-15 0)
(3 -3.66598e-15 0)
(3 -4.31865e-15 0)
(3 -4.70362e-15 0)
(3 -3.39933e-15 0)
(3 -2.84337e-15 0)
(3 -2.77538e-15 0)
(3 -2.78785e-15 0)
(3 -1.81398e-15 0)
(3 -2.17267e-15 0)
(3 -3.03818e-15 0)
(3 -3.48235e-15 0)
(3 -3.40874e-15 0)
(3 -2.8061e-15 0)
(3 -2.19803e-15 0)
(3 -1.46944e-15 0)
(3 -1.85914e-16 0)
(3 1.01869e-15 0)
(3 3.0621e-15 0)
(3 3.64147e-15 0)
(3 3.85233e-15 0)
(3 3.08248e-15 0)
(3 2.69728e-15 0)
(3 2.297e-15 0)
(3 1.59467e-15 0)
(3 1.04985e-15 0)
(3 -5.32653e-16 0)
(3 -1.0403e-15 0)
(3 -2.78288e-15 0)
(3 -3.12938e-15 0)
(3 -3.03841e-15 0)
(3 -2.52056e-15 0)
(3 -2.19682e-15 0)
(3 -2.05186e-15 0)
(3 -2.45235e-15 0)
(3 -2.56832e-15 0)
(3 -3.0951e-15 0)
(3 -3.20916e-15 0)
(3 -2.4024e-15 0)
(3 -1.37829e-15 0)
(3 -1.02829e-15 0)
(3 -3.55638e-16 0)
(3 -3.77223e-17 0)
(3 -8.48989e-16 0)
(3 -6.81027e-16 0)
(3 -2.82992e-16 0)
(3 5.46944e-16 0)
(3 6.3843e-16 0)
(3 1.30241e-16 0)
(3 -1.26035e-15 0)
(3 -2.193e-15 0)
(3 -2.92214e-15 0)
(3 -2.96086e-15 0)
(3 -2.54181e-15 0)
(3 -1.63512e-15 0)
(3 -3.96983e-17 0)
(3 1.88216e-15 0)
(3 3.6945e-15 0)
(3 4.75157e-15 0)
(3 5.23824e-15 0)
(3 4.92639e-15 0)
(3 4.17818e-15 0)
(3 3.05958e-15 0)
(3 -2.49265e-16 0)
(3 -4.22716e-16 0)
(3 1.71914e-16 0)
(3 5.19306e-16 0)
(3 5.35814e-16 0)
(3 2.40957e-16 0)
(3 -6.14857e-16 0)
(3 -7.86064e-16 0)
(3 -1.14814e-15 0)
(3 -7.45406e-16 0)
(3 -1.26928e-15 0)
(3 -6.46522e-16 0)
(3 1.37405e-16 0)
(3 1.42298e-15 0)
(3 1.45182e-15 0)
(3 1.89938e-15 0)
(3 3.00232e-15 0)
(3 3.23538e-15 0)
(3 3.14488e-15 0)
(3 3.54947e-15 0)
(3 3.14786e-15 0)
(3 2.54447e-15 0)
(3 1.67908e-15 0)
(3 1.66084e-15 0)
(3 3.00553e-15 0)
(3 4.25429e-15 0)
(3 4.28009e-15 0)
(3 3.34507e-15 0)
(3 2.77131e-15 0)
(3 1.47582e-15 0)
(3 -2.92849e-16 0)
(3 -1.0961e-15 0)
(3 -2.3753e-15 0)
(3 -3.98798e-15 0)
(3 -4.75349e-15 0)
(3 -5.03948e-15 0)
(3 -4.39607e-15 0)
(3 -3.95161e-15 0)
(3 -2.4144e-15 0)
(3 -2.30246e-15 0)
(3 -3.234e-15 0)
(3 -3.49404e-15 0)
(3 -3.15221e-15 0)
(3 -4.06562e-15 0)
(3 -4.39095e-15 0)
(3 -4.45765e-15 0)
(3 -3.30644e-15 0)
(3 -5.63289e-16 0)
(3 8.19673e-16 0)
(3 2.22867e-15 0)
(3 2.58513e-15 0)
(3 2.62135e-15 0)
(3 2.50945e-15 0)
(3 3.04183e-15 0)
(3 2.55512e-15 0)
(3 1.92669e-15 0)
(3 1.35073e-15 0)
(3 2.89213e-16 0)
(3 -8.48427e-16 0)
(3 -1.18033e-15 0)
(3 -1.525e-15 0)
(3 -1.90109e-15 0)
(3 -1.31418e-15 0)
(3 -1.00182e-15 0)
(3 -1.87461e-16 0)
(3 -8.67803e-18 0)
(3 -9.00915e-16 0)
(3 -1.41809e-15 0)
(3 -1.68493e-15 0)
(3 -1.63478e-15 0)
(3 -1.65937e-15 0)
(3 -1.85612e-15 0)
(3 -2.46105e-15 0)
(3 -1.94829e-15 0)
(3 -1.42446e-15 0)
(3 -2.04974e-15 0)
(3 -2.29798e-15 0)
(3 -1.05372e-15 0)
(3 1.50364e-16 0)
(3 1.28115e-15 0)
(3 1.02603e-15 0)
(3 1.09655e-16 0)
(3 -1.44427e-15 0)
(3 -4.25259e-15 0)
(3 -4.70141e-15 0)
(3 -4.66062e-15 0)
(3 -3.11955e-15 0)
(3 -1.76359e-15 0)
(3 -1.73546e-16 0)
(3 1.30063e-15 0)
(3 2.2952e-15 0)
(3 3.46065e-15 0)
(3 3.80215e-15 0)
(3 3.59087e-15 0)
(3 3.56389e-15 0)
(3 2.65701e-15 0)
(3 -3.25917e-16 0)
(3 -6.04987e-16 0)
(3 -4.37186e-16 0)
(3 4.08368e-16 0)
(3 -2.06856e-18 0)
(3 -4.14799e-16 0)
(3 -1.21696e-15 0)
(3 -1.12393e-15 0)
(3 -1.51603e-15 0)
(3 -2.30147e-15 0)
(3 -2.35212e-15 0)
(3 -1.84158e-15 0)
(3 -1.41526e-15 0)
(3 -7.87109e-16 0)
(3 1.6782e-16 0)
(3 1.22463e-15 0)
(3 2.0582e-15 0)
(3 2.42756e-15 0)
(3 3.67644e-15 0)
(3 3.82174e-15 0)
(3 3.63717e-15 0)
(3 3.65611e-15 0)
(3 3.37932e-15 0)
(3 3.49771e-15 0)
(3 4.67643e-15 0)
(3 5.23559e-15 0)
(3 5.33641e-15 0)
(3 5.00612e-15 0)
(3 4.22054e-15 0)
(3 3.87196e-15 0)
(3 2.00764e-15 0)
(3 -3.76122e-16 0)
(3 -1.53169e-15 0)
(3 -1.85418e-15 0)
(3 -1.87315e-15 0)
(3 -2.33345e-15 0)
(3 -2.94988e-15 0)
(3 -3.03108e-15 0)
(3 -2.75416e-15 0)
(3 -2.32848e-15 0)
(3 -2.68855e-15 0)
(3 -3.68216e-15 0)
(3 -4.32841e-15 0)
(3 -5.15296e-15 0)
(3 -5.02622e-15 0)
(3 -4.075e-15 0)
(3 -1.93425e-15 0)
(3 -1.94604e-16 0)
(3 4.65029e-16 0)
(3 1.27984e-15 0)
(3 1.0627e-15 0)
(3 5.36131e-16 0)
(3 1.07585e-16 0)
(3 1.72105e-16 0)
(3 -1.75318e-16 0)
(3 -6.00638e-16 0)
(3 -9.80897e-16 0)
(3 -1.55263e-15 0)
(3 -1.70853e-15 0)
(3 -1.30745e-15 0)
(3 -7.51579e-16 0)
(3 -1.07177e-16 0)
(3 7.21961e-16 0)
(3 7.99064e-16 0)
(3 8.49807e-17 0)
(3 -2.46617e-16 0)
(3 -4.00972e-16 0)
(3 -6.59759e-16 0)
(3 -6.35e-16 0)
(3 -5.22906e-16 0)
(3 -1.20932e-15 0)
(3 -1.71239e-15 0)
(3 -2.37024e-15 0)
(3 -2.24231e-15 0)
(3 -2.21723e-15 0)
(3 -1.8546e-15 0)
(3 -1.14312e-15 0)
(3 -1.64646e-16 0)
(3 3.19729e-16 0)
(3 1.1813e-16 0)
(3 -4.27694e-16 0)
(3 -8.09806e-16 0)
(3 -2.6787e-15 0)
(3 -2.11298e-15 0)
(3 -2.03546e-15 0)
(3 -2.08297e-15 0)
(3 -1.5354e-15 0)
(3 -1.47482e-15 0)
(3 6.40191e-16 0)
(3 1.17087e-15 0)
(3 1.79992e-15 0)
(3 2.13167e-15 0)
(3 2.08291e-15 0)
(3 2.10063e-15 0)
(3 2.51867e-15 0)
(3 2.40303e-15 0)
(3 6.8454e-17 0)
(3 4.40312e-17 0)
(3 -3.33154e-16 0)
(3 -8.74744e-16 0)
(3 -1.04501e-15 0)
(3 -1.19031e-15 0)
(3 -1.88595e-15 0)
(3 -1.71031e-15 0)
(3 -1.30159e-15 0)
(3 -1.0741e-15 0)
(3 -3.41152e-16 0)
(3 -4.99981e-16 0)
(3 -6.42833e-16 0)
(3 -4.87036e-16 0)
(3 1.21543e-16 0)
(3 8.34682e-16 0)
(3 1.5806e-15 0)
(3 2.25062e-15 0)
(3 2.42955e-15 0)
(3 1.68314e-15 0)
(3 2.02631e-15 0)
(3 1.75646e-15 0)
(3 2.1585e-15 0)
(3 2.64096e-15 0)
(3 2.1795e-15 0)
(3 1.82779e-15 0)
(3 1.51719e-15 0)
(3 1.05541e-15 0)
(3 1.32118e-15 0)
(3 1.43629e-15 0)
(3 1.53957e-15 0)
(3 1.47647e-15 0)
(3 9.59547e-16 0)
(3 5.00096e-16 0)
(3 1.20221e-15 0)
(3 1.50372e-15 0)
(3 1.00161e-15 0)
(3 -7.96382e-16 0)
(3 -1.71938e-15 0)
(3 -1.84242e-15 0)
(3 -2.02074e-15 0)
(3 -2.41587e-15 0)
(3 -3.60454e-15 0)
(3 -3.08724e-15 0)
(3 -1.69194e-15 0)
(3 -7.95393e-16 0)
(3 -9.80785e-17 0)
(3 2.09023e-16 0)
(3 -4.21814e-17 0)
(3 -7.18806e-16 0)
(3 -2.63109e-15 0)
(3 -3.42494e-15 0)
(3 -2.79151e-15 0)
(3 -2.09988e-15 0)
(3 -2.25361e-15 0)
(3 -2.21215e-15 0)
(3 -2.46334e-15 0)
(3 -2.0581e-15 0)
(3 -1.86362e-15 0)
(3 -3.5579e-16 0)
(3 2.55245e-16 0)
(3 1.32527e-15 0)
(3 1.29998e-15 0)
(3 1.01007e-15 0)
(3 3.7355e-16 0)
(3 2.57866e-17 0)
(3 -5.7e-17 0)
(3 2.62807e-17 0)
(3 -6.85717e-16 0)
(3 -1.32034e-15 0)
(3 -1.28428e-15 0)
(3 -1.21596e-15 0)
(3 -8.18702e-16 0)
(3 2.85461e-16 0)
(3 7.12084e-16 0)
(3 8.50122e-16 0)
(3 5.93973e-16 0)
(3 -6.84862e-16 0)
(3 -3.19252e-15 0)
(3 -5.55674e-15 0)
(3 -5.62413e-15 0)
(3 -5.30097e-15 0)
(3 -4.59978e-15 0)
(3 -1.40517e-15 0)
(3 1.61931e-16 0)
(3 1.16691e-15 0)
(3 1.56232e-15 0)
(3 4.40728e-16 0)
(3 -4.87028e-16 0)
(3 2.00468e-17 0)
(3 7.2332e-16 0)
(3 1.64285e-15 0)
(3 1.30815e-15 0)
(3 8.70265e-16 0)
(3 7.80572e-16 0)
(3 6.3047e-16 0)
(3 7.21845e-16 0)
(3 1.01273e-15 0)
(3 -5.21379e-16 0)
(3 -2.21807e-15 0)
(3 -2.58279e-15 0)
(3 -1.88978e-15 0)
(3 -1.41898e-15 0)
(3 -7.67939e-16 0)
(3 -7.33778e-16 0)
(3 1.44831e-16 0)
(3 1.13643e-16 0)
(3 2.86041e-16 0)
(3 8.32709e-16 0)
(3 1.03906e-15 0)
(3 1.04124e-16 0)
(3 2.60442e-16 0)
(3 9.73763e-16 0)
(3 1.04462e-15 0)
(3 8.10126e-16 0)
(3 7.65832e-16 0)
(3 -2.04389e-16 0)
(3 -5.46151e-16 0)
(3 4.91815e-18 0)
(3 2.79793e-16 0)
(3 2.87887e-16 0)
(3 4.48816e-16 0)
(3 1.37358e-15 0)
(3 1.69641e-15 0)
(3 1.94947e-15 0)
(3 1.77904e-15 0)
(3 2.02194e-15 0)
(3 2.13408e-15 0)
(3 2.07512e-15 0)
(3 2.20167e-15 0)
(3 2.17458e-15 0)
(3 2.44852e-15 0)
(3 4.16164e-15 0)
(3 3.51288e-15 0)
(3 2.33656e-15 0)
(3 -1.954e-16 0)
(3 -8.82505e-16 0)
(3 -1.45389e-15 0)
(3 -1.4862e-15 0)
(3 -6.29243e-18 0)
(3 1.18682e-15 0)
(3 1.27173e-15 0)
(3 1.24353e-15 0)
(3 8.08478e-16 0)
(3 9.70606e-16 0)
(3 3.66663e-16 0)
(3 -1.04088e-15 0)
(3 -1.68124e-15 0)
(3 -2.58427e-15 0)
(3 -3.68412e-15 0)
(3 -3.434e-15 0)
(3 -3.979e-15 0)
(3 -3.14781e-15 0)
(3 -2.15259e-15 0)
(3 -2.08844e-17 0)
(3 1.63221e-15 0)
(3 1.91506e-15 0)
(3 1.96085e-15 0)
(3 1.53987e-15 0)
(3 9.24903e-16 0)
(3 8.21541e-16 0)
(3 6.98035e-16 0)
(3 2.96375e-16 0)
(3 -4.30086e-16 0)
(3 -1.18164e-15 0)
(3 -1.12791e-15 0)
(3 -2.69002e-16 0)
(3 5.61661e-16 0)
(3 4.90357e-16 0)
(3 1.21492e-16 0)
(3 1.14059e-16 0)
(3 -2.13705e-16 0)
(3 -6.34468e-16 0)
(3 -1.74519e-15 0)
(3 -2.0483e-15 0)
(3 -3.1664e-15 0)
(3 -2.79076e-15 0)
(3 -2.32662e-15 0)
(3 2.98369e-16 0)
(3 1.35787e-15 0)
(3 2.53152e-15 0)
(3 3.14315e-15 0)
(3 3.6541e-15 0)
(3 1.65392e-15 0)
(3 -8.33493e-16 0)
(3 -1.66831e-15 0)
(3 -1.82312e-15 0)
(3 -1.67361e-15 0)
(3 -1.1658e-15 0)
(3 -5.25195e-16 0)
(3 -6.14122e-16 0)
(3 -5.27982e-16 0)
(3 2.96541e-16 0)
(3 5.5487e-16 0)
(3 -7.07619e-16 0)
(3 -1.44079e-15 0)
(3 -1.82162e-15 0)
(3 -1.28776e-15 0)
(3 -6.40757e-16 0)
(3 -1.05298e-16 0)
(3 -7.75248e-17 0)
(3 1.36081e-16 0)
(3 1.19344e-16 0)
(3 1.57553e-16 0)
(3 4.67063e-16 0)
(3 5.24526e-16 0)
(3 1.62307e-16 0)
(3 -8.2509e-16 0)
(3 -1.37296e-15 0)
(3 -6.91223e-16 0)
(3 -5.32814e-16 0)
(3 -4.56105e-16 0)
(3 -7.76906e-16 0)
(3 -5.34703e-16 0)
(3 -2.5907e-16 0)
(3 4.11639e-16 0)
(3 6.64355e-16 0)
(3 1.28015e-15 0)
(3 3.00945e-16 0)
(3 6.45098e-16 0)
(3 6.87279e-16 0)
(3 6.097e-16 0)
(3 6.02149e-16 0)
(3 7.99426e-16 0)
(3 1.34631e-15 0)
(3 1.78286e-15 0)
(3 3.35131e-15 0)
(3 4.31336e-15 0)
(3 4.82171e-15 0)
(3 4.81258e-15 0)
(3 3.65071e-15 0)
(3 2.72895e-15 0)
(3 1.92008e-15 0)
(3 1.49762e-15 0)
(3 9.22445e-16 0)
(3 5.93369e-16 0)
(3 -3.42223e-16 0)
(3 -2.87805e-16 0)
(3 1.16441e-16 0)
(3 8.60327e-17 0)
(3 1.83439e-16 0)
(3 6.43914e-16 0)
(3 -9.69191e-16 0)
(3 -1.58455e-15 0)
(3 -2.45891e-15 0)
(3 -4.13927e-15 0)
(3 -4.62334e-15 0)
(3 -4.27877e-15 0)
(3 -3.73124e-15 0)
(3 -2.42516e-15 0)
(3 -2.29222e-16 0)
(3 1.44878e-15 0)
(3 2.94627e-15 0)
(3 3.3926e-15 0)
(3 2.86878e-15 0)
(3 2.60274e-15 0)
(3 1.61893e-15 0)
(3 -2.82767e-16 0)
(3 -1.87929e-15 0)
(3 -2.76773e-15 0)
(3 -3.0188e-15 0)
(3 -1.28005e-15 0)
(3 -2.17529e-16 0)
(3 4.30606e-16 0)
(3 4.0169e-16 0)
(3 -7.69225e-16 0)
(3 -1.56361e-15 0)
(3 -2.16343e-15 0)
(3 -2.0967e-15 0)
(3 -1.81574e-15 0)
(3 -1.93706e-15 0)
(3 -1.27172e-15 0)
(3 -9.6916e-16 0)
(3 6.63052e-16 0)
(3 2.98296e-15 0)
(3 3.24239e-15 0)
(3 2.82553e-15 0)
(3 6.99526e-16 0)
(3 1.25143e-15 0)
(3 5.38747e-16 0)
(3 -5.15592e-16 0)
(3 -9.58969e-16 0)
(3 -2.25437e-15 0)
(3 -2.58104e-15 0)
(3 -2.33171e-15 0)
(3 -1.87246e-15 0)
(3 -1.99755e-15 0)
(3 -1.87503e-15 0)
(3 -2.02489e-16 0)
(3 -2.57608e-16 0)
(3 2.872e-16 0)
(3 6.59537e-16 0)
(3 -2.42815e-18 0)
(3 -2.38087e-16 0)
(3 1.55189e-16 0)
(3 -3.75315e-17 0)
(3 -2.60552e-16 0)
(3 6.46963e-16 0)
(3 7.95971e-16 0)
(3 1.13279e-15 0)
(3 7.27239e-16 0)
(3 5.21438e-16 0)
(3 5.76951e-16 0)
(3 -2.00202e-16 0)
(3 -1.31618e-15 0)
(3 -1.63312e-15 0)
(3 -1.12422e-15 0)
(3 -5.6088e-16 0)
(3 1.85672e-16 0)
(3 1.55828e-15 0)
(3 1.60235e-15 0)
(3 1.80544e-15 0)
(3 1.81765e-15 0)
(3 2.23464e-15 0)
(3 -2.97644e-16 0)
(3 -1.40133e-15 0)
(3 -9.64692e-16 0)
(3 -4.92207e-16 0)
(3 3.97483e-16 0)
(3 1.26335e-15 0)
(3 1.62874e-15 0)
(3 8.93777e-16 0)
(3 1.33905e-15 0)
(3 1.95907e-15 0)
(3 2.0924e-15 0)
(3 2.2827e-15 0)
(3 2.84813e-15 0)
(3 3.08592e-15 0)
(3 3.20361e-15 0)
(3 3.47601e-15 0)
(3 3.49145e-15 0)
(3 2.42674e-15 0)
(3 1.71174e-15 0)
(3 2.02792e-15 0)
(3 1.51393e-15 0)
(3 1.40212e-15 0)
(3 1.30591e-16 0)
(3 -5.53153e-16 0)
(3 -1.59359e-15 0)
(3 -2.67499e-15 0)
(3 -2.65742e-15 0)
(3 -2.08011e-15 0)
(3 -1.89238e-15 0)
(3 -1.73468e-15 0)
(3 -1.75551e-15 0)
(3 -1.10143e-15 0)
(3 -3.40748e-16 0)
(3 5.22093e-16 0)
(3 1.82388e-15 0)
(3 2.67806e-15 0)
(3 2.12798e-15 0)
(3 2.60323e-15 0)
(3 2.48555e-15 0)
(3 7.85111e-16 0)
(3 -1.02315e-16 0)
(3 4.4778e-16 0)
(3 -7.3025e-16 0)
(3 -1.49765e-15 0)
(3 -1.14973e-15 0)
(3 -1.4123e-15 0)
(3 -1.11463e-15 0)
(3 -6.99794e-16 0)
(3 -6.88296e-16 0)
(3 -1.33093e-15 0)
(3 -1.59041e-15 0)
(3 -2.17908e-15 0)
(3 -2.22996e-15 0)
(3 -1.09328e-15 0)
(3 1.14247e-16 0)
(3 2.92021e-15 0)
(3 4.50748e-15 0)
(3 5.3388e-15 0)
(3 5.67712e-15 0)
(3 5.77819e-15 0)
(3 4.04923e-15 0)
(3 2.6765e-15 0)
(3 1.40067e-15 0)
(3 -4.90781e-16 0)
(3 -1.18867e-15 0)
(3 -1.43621e-15 0)
(3 -1.38311e-15 0)
(3 -1.00892e-15 0)
(3 -1.1262e-15 0)
(3 -1.52598e-15 0)
(3 -1.85671e-16 0)
(3 -4.30921e-16 0)
(3 1.08275e-15 0)
(3 1.79819e-15 0)
(3 2.08835e-15 0)
(3 2.12371e-15 0)
(3 1.44541e-15 0)
(3 1.19454e-15 0)
(3 4.91804e-16 0)
(3 1.55795e-16 0)
(3 1.95784e-16 0)
(3 2.43183e-16 0)
(3 -2.45275e-16 0)
(3 -7.68371e-16 0)
(3 -5.20575e-16 0)
(3 2.6321e-16 0)
(3 -2.13173e-16 0)
(3 -1.03834e-15 0)
(3 -7.9605e-16 0)
(3 -1.37622e-16 0)
(3 1.55435e-15 0)
(3 2.3651e-15 0)
(3 1.92939e-15 0)
(3 1.04396e-15 0)
(3 1.86183e-16 0)
(3 3.52746e-16 0)
(3 7.7418e-16 0)
(3 7.18575e-16 0)
(3 1.40071e-15 0)
(3 1.33544e-15 0)
(3 2.34146e-15 0)
(3 2.92847e-15 0)
(3 1.41344e-15 0)
(3 4.87144e-18 0)
(3 -1.00022e-15 0)
(3 -1.14648e-15 0)
(3 -1.23325e-15 0)
(3 -6.07689e-16 0)
(3 7.70218e-16 0)
(3 1.59143e-15 0)
(3 1.90509e-15 0)
(3 2.49258e-15 0)
(3 2.89033e-15 0)
(3 3.38682e-15 0)
(3 4.11634e-15 0)
(3 3.57686e-15 0)
(3 2.87761e-15 0)
(3 1.5912e-15 0)
(3 7.53312e-16 0)
(3 6.39902e-18 0)
(3 -7.50287e-16 0)
(3 -1.59335e-15 0)
(3 -1.63991e-15 0)
(3 -9.14763e-16 0)
(3 -5.36887e-16 0)
(3 1.5331e-16 0)
(3 5.75775e-16 0)
(3 4.88538e-16 0)
(3 3.26999e-16 0)
(3 6.72167e-16 0)
(3 4.02447e-16 0)
(3 1.10559e-15 0)
(3 6.61155e-16 0)
(3 6.47999e-16 0)
(3 7.6602e-16 0)
(3 5.74935e-16 0)
(3 -1.66528e-16 0)
(3 1.66798e-16 0)
(3 -3.33715e-16 0)
(3 -6.3754e-16 0)
(3 -1.01882e-15 0)
(3 -1.47294e-15 0)
(3 -1.42488e-15 0)
(3 -1.16467e-15 0)
(3 -1.2955e-15 0)
(3 -3.53382e-16 0)
(3 -9.45044e-16 0)
(3 -8.90689e-16 0)
(3 -9.16223e-16 0)
(3 -2.93942e-16 0)
(3 1.16294e-15 0)
(3 2.88243e-15 0)
(3 4.41919e-15 0)
(3 5.14954e-15 0)
(3 5.713e-15 0)
(3 5.6396e-15 0)
(3 4.8493e-15 0)
(3 4.2816e-15 0)
(3 3.50031e-15 0)
(3 2.33723e-15 0)
(3 1.70534e-15 0)
(3 -3.47004e-17 0)
(3 -9.54087e-16 0)
(3 -1.49786e-15 0)
(3 -4.45966e-16 0)
(3 -4.97349e-16 0)
(3 2.44806e-17 0)
(3 -6.18263e-16 0)
(3 -3.93325e-16 0)
(3 2.2973e-16 0)
(3 4.94584e-16 0)
(3 4.54633e-16 0)
(3 4.65628e-16 0)
(3 7.44363e-16 0)
(3 4.80443e-16 0)
(3 -9.73754e-16 0)
(3 -1.34155e-15 0)
(3 -2.14778e-15 0)
(3 -2.06755e-15 0)
(3 -1.22263e-15 0)
(3 -8.37399e-16 0)
(3 1.23547e-16 0)
(3 9.83535e-17 0)
(3 3.17015e-16 0)
(3 -2.80106e-16 0)
(3 -2.31244e-16 0)
(3 1.71485e-16 0)
(3 3.35397e-16 0)
(3 -3.66204e-17 0)
(3 9.14843e-17 0)
(3 -3.20977e-16 0)
(3 -5.72371e-17 0)
(3 1.28974e-15 0)
(3 2.9089e-15 0)
(3 3.09055e-15 0)
(3 2.99946e-15 0)
(3 2.14992e-15 0)
(3 1.60237e-15 0)
(3 -2.71434e-16 0)
(3 -5.00612e-16 0)
(3 -1.32269e-15 0)
(3 -1.33237e-15 0)
(3 -1.17846e-15 0)
(3 -1.40812e-15 0)
(3 -1.28227e-15 0)
(3 1.76901e-16 0)
(3 1.07872e-15 0)
(3 1.89685e-15 0)
(3 2.6121e-15 0)
(3 2.6141e-15 0)
(3 2.07478e-15 0)
(3 1.25421e-15 0)
(3 5.93017e-16 0)
(3 -2.09503e-16 0)
(3 -1.28396e-16 0)
(3 -4.66083e-16 0)
(3 -2.04709e-16 0)
(3 3.9077e-16 0)
(3 1.95693e-16 0)
(3 -1.7056e-16 0)
(3 -4.5462e-16 0)
(3 1.49515e-16 0)
(3 8.03037e-16 0)
(3 5.94053e-16 0)
(3 1.91159e-17 0)
(3 -9.80289e-16 0)
(3 -1.91837e-15 0)
(3 -2.0408e-15 0)
(3 -1.41668e-15 0)
(3 -1.13332e-15 0)
(3 -8.2499e-16 0)
(3 -6.97243e-16 0)
(3 -9.10038e-16 0)
(3 -1.75326e-15 0)
(3 -2.11459e-15 0)
(3 -1.80798e-15 0)
(3 -2.40258e-15 0)
(3 -2.23535e-15 0)
(3 -1.46058e-15 0)
(3 -1.77676e-15 0)
(3 -1.11e-15 0)
(3 -3.9664e-16 0)
(3 1.75175e-16 0)
(3 5.16769e-16 0)
(3 6.61285e-16 0)
(3 4.02524e-16 0)
(3 1.56851e-15 0)
(3 2.60368e-15 0)
(3 2.40944e-15 0)
(3 2.6142e-15 0)
(3 3.34221e-15 0)
(3 3.31021e-15 0)
(3 3.1948e-15 0)
(3 2.72153e-15 0)
(3 2.53062e-15 0)
(3 2.21801e-15 0)
(3 1.85492e-15 0)
(3 8.11457e-16 0)
(3 4.11573e-16 0)
(3 -8.60224e-16 0)
(3 9.63907e-16 0)
(3 6.0182e-16 0)
(3 3.42912e-16 0)
(3 -8.63214e-16 0)
(3 -1.79286e-15 0)
(3 -2.41872e-15 0)
(3 -2.49625e-15 0)
(3 -1.44666e-15 0)
(3 -9.24334e-16 0)
(3 -6.44677e-16 0)
(3 -5.56493e-16 0)
(3 -9.6673e-16 0)
(3 -1.56864e-15 0)
(3 -1.75539e-15 0)
(3 -1.64046e-15 0)
(3 -1.11984e-15 0)
(3 -4.88146e-16 0)
(3 -2.46259e-16 0)
(3 -1.56474e-16 0)
(3 -1.3583e-17 0)
(3 -4.03658e-16 0)
(3 -1.09818e-15 0)
(3 -1.40716e-15 0)
(3 -2.09156e-15 0)
(3 -2.11643e-15 0)
(3 -1.75241e-15 0)
(3 -1.45513e-15 0)
(3 -1.2602e-15 0)
(3 -9.01162e-16 0)
(3 1.11096e-16 0)
(3 7.94262e-16 0)
(3 1.19818e-15 0)
(3 3.64808e-16 0)
(3 -6.44581e-16 0)
(3 -5.11521e-16 0)
(3 -1.37293e-16 0)
(3 5.28274e-16 0)
(3 1.66953e-15 0)
(3 1.9687e-15 0)
(3 8.01782e-16 0)
(3 -4.78677e-16 0)
(3 -4.82079e-16 0)
(3 2.39739e-17 0)
(3 5.22425e-16 0)
(3 1.11748e-15 0)
(3 9.65066e-16 0)
(3 -2.46449e-16 0)
(3 -4.31639e-16 0)
(3 -5.15957e-16 0)
(3 -1.12924e-15 0)
(3 -1.0775e-15 0)
(3 -1.23506e-15 0)
(3 -4.69031e-16 0)
(3 -5.50094e-16 0)
(3 -4.64767e-18 0)
(3 2.5876e-16 0)
(3 1.6179e-16 0)
(3 -2.05603e-16 0)
(3 -4.16737e-16 0)
(3 -8.03985e-16 0)
(3 -1.34743e-15 0)
(3 -2.08377e-15 0)
(3 -1.96542e-15 0)
(3 -2.24807e-15 0)
(3 -2.22981e-15 0)
(3 -1.83243e-15 0)
(3 -1.3683e-15 0)
(3 -3.72431e-16 0)
(3 3.8054e-16 0)
(3 -2.39805e-16 0)
(3 -5.19546e-16 0)
(3 -9.92219e-16 0)
(3 -1.36221e-15 0)
(3 -2.00064e-15 0)
(3 -2.14257e-15 0)
(3 -1.54247e-15 0)
(3 -2.64761e-16 0)
(3 9.1209e-16 0)
(3 1.60497e-15 0)
(3 1.78487e-15 0)
(3 2.39525e-15 0)
(3 3.54915e-15 0)
(3 4.24068e-15 0)
(3 3.78987e-15 0)
(3 2.23039e-15 0)
(3 1.0062e-15 0)
(3 1.26005e-15 0)
(3 1.00299e-15 0)
(3 7.66579e-16 0)
(3 8.24791e-16 0)
(3 1.41218e-15 0)
(3 9.76912e-16 0)
(3 6.66713e-16 0)
(3 1.0149e-15 0)
(3 2.43713e-15 0)
(3 2.54573e-15 0)
(3 2.64183e-15 0)
(3 2.40834e-15 0)
(3 -1.26136e-16 0)
(3 -1.47359e-16 0)
(3 -1.11684e-16 0)
(3 1.57349e-16 0)
(3 5.10727e-16 0)
(3 -7.55048e-16 0)
(3 -1.1258e-15 0)
(3 -1.17053e-15 0)
(3 -3.36589e-16 0)
(3 7.93809e-17 0)
(3 1.07401e-16 0)
(3 -2.84337e-16 0)
(3 -4.67848e-16 0)
(3 -1.06312e-15 0)
(3 -9.54498e-16 0)
(3 -6.5434e-16 0)
(3 -2.94782e-16 0)
(3 -2.73493e-16 0)
(3 -1.96938e-16 0)
(3 -7.46756e-16 0)
(3 -2.36914e-15 0)
(3 -3.70728e-15 0)
(3 -2.87488e-15 0)
(3 -2.64444e-15 0)
(3 -1.62861e-15 0)
(3 -9.07329e-16 0)
(3 6.68388e-16 0)
(3 5.78609e-16 0)
(3 1.26689e-16 0)
(3 -1.52089e-16 0)
(3 -1.75459e-16 0)
(3 -4.94756e-16 0)
(3 -2.6637e-16 0)
(3 -2.8977e-16 0)
(3 6.55614e-16 0)
(3 1.78701e-15 0)
(3 3.07225e-15 0)
(3 2.11172e-15 0)
(3 5.22562e-16 0)
(3 -6.59573e-16 0)
(3 -1.34956e-15 0)
(3 -1.62865e-15 0)
(3 -1.74027e-15 0)
(3 -9.90278e-16 0)
(3 -6.75992e-16 0)
(3 -7.12837e-16 0)
(3 -9.81408e-16 0)
(3 -1.50498e-15 0)
(3 -2.13706e-15 0)
(3 -1.92069e-15 0)
(3 -1.69268e-15 0)
(3 -2.01955e-15 0)
(3 -2.01216e-15 0)
(3 -1.43007e-15 0)
(3 -4.73441e-16 0)
(3 -1.68479e-16 0)
(3 7.08196e-17 0)
(3 1.76055e-16 0)