/*--------------------------------*- C++ -*----------------------------------*\
  =========                 |
  \\      /  F ield         | OpenFOAM: The Open Source CFD Toolbox
   \\    /   O peration     | Website:  https://openfoam.org
    \\  /    A nd           | Version:  7
     \\/     M anipulation  |
\*---------------------------------------------------------------------------*/
FoamFile
{
    version     2.0;
    format      ascii;
    class       volScalarField;
    location    "2";
    object      p;
}
// * * * * * * * * * * * * * * * * * * * * * * * * * * * * * * * * * * * * * //

dimensions      [1 -1 -2 0 0 0 0];

internalField   nonuniform List<scalar> 
4608
(
1
1
1
1
1
1
1
1
1
1
1
1
1
1
1
1
1
1
1
1
1
1
1
1
1
1
1
1
1
1
1
1
1
1
1
1
1
1
1
1
1
1
1
1
1
1
1
1
1
1
1
1
1
1
1
1
1
1
1
1
1
1
1
1
1
1
1
1
1
1
1
1
1
1
1
1
1
1
1
1
1
1
1
1
1
1
1
1
1
1
1
1
1
1
1
1
1
1
1
1
1
1
1
1
1
1
1
1
1
1
1
1
1
1
1
1
1
1
1
1
1
1
1
1
1
1
1
1
1
1
1
1
1
1
1
1
1
1
1
1
1
1
1
1
1
1
1
1
1
1
1
1
1
1
1
1
1
1
1
1
1
1
1
1
1
1
1
1
1
1
1
1
1
1
1
1
1
1
1
1
1
1
1
1
1
1
1
1
1
1
1
1
1
1
1
1
1
1
1
1
1
1
1
1
1
1
1
1
1
1
1
1
1
1
1
1
1
1
1
1
1
1
1
1
1
1
1
1
1
1
1
1
1
1
1
1
1
1
1
1
1
1
1
1
1
1
1
1
1
1
1
1
1
1
1
1
1
1
1
1
1
1
1
1
1
1
1
1
1
1
1
1
1
1
1
1
1
1
1
1
1
1
1
1
1
1
1
1
1
1
1
1
1
1
1
1
1
1
1
1
1
1
1
1
1
1
1
1
1
1
1
1
1
1
1
1
1
1
1
1
1
1
1
1
1
1
1
1
1
1
1
1
1
1
1
1
1
1
1
1
1
1
1
1
1
1
1
1
1
1
1
1
1
1
1
1
1
1
1
1
1
1
1
1
1
1
1
1
1
1
1
1
1
1
1
1
1
1
1
1
1
1
1
1
1
1
1
1
1
1
1
1
1
1
1
1
1
1
1
1
1
1
1
1
1
1
1
1
1
1
1
1
1
1
1
1
1
1
1
1
1
1
1
1
1
1
1
1
1
1
1
1
1
1
1
1
1
1
1
1
1
1
1
1
1
1
1
1
1
1
1
1
1
1
1
1
1
1
1
1
1
1
1
1
1
1
1
1
1
1
1
1
1
1
1
1
1
1
1
1
1
1
1
1
1
1
1
1
1
1
1
1
1
1
1
1
1
1
1
1
1
1
1
1
1
1
1
1
1
1
1
1
1
1
1
1
1
1
1
1
1
1
1
1
1
1
1
1
1
1
1
1
1
1
1
1
1
1
1
1
1
1
1
1
1
1
1
1
1
1
1
1
1
1
1
1
1
1
1
1
1
1
1
1
1
1
1
1
1
1
1
1
1
1
1
1
1
1
1
1
1
1
1
1
1
1
1
1
1
1
1
1
1
1
1
1
1
1
1
1
1
1
1
1
1
1
1
1
1
1
1
1
1
1
1
1
1
1
1
1
1
1
1
1
1
1
1
1
1
1
1
1
1
1
1
1
1
1
1
1
1
1
1
1
1
1
1
1
1
1
1
1
1
1
1
1
1
1
1
1
1
1
1
1
1
1
1
1
1
1
1
1
1
1
1
1
1
1
1
1
1
1
1
1
1
1
1
1
1
1
1
1
1
1
1
1
1
1
1
1
1
1
1
1
1
1
1
1
1
1
1
1
1
1
1
1
1
1
1
1
1
1
1
1
1
1
1
1
1
1
1
1
1
1
1
1
1
1
1
1
1
1
1
1
1
1
1
1
1
1
1
1
1
1
1
1
1
1
1
1
1
1
1
1
1
1
1
1
1.29236
1.76726
2.31576
2.9854
3.64295
4.27875
4.84901
5.30549
5.3716
5.16868
4.71911
4.21719
3.82397
3.65905
3.56509
3.58114
3.62363
3.66465
3.69514
3.71555
3.72932
3.7516
3.77633
3.78012
1.00208
1.01925
1.08888
1.21256
1.47839
1.85184
2.38092
2.96844
3.59642
3.83725
4.03131
4.04121
3.98648
3.85577
3.75166
3.73563
3.70779
3.693
3.69976
3.70811
3.72354
3.7434
3.76624
3.77625
0.999999
0.999946
1.00024
1.00018
1.00367
1.02336
1.109
1.36175
1.98281
3.0005
3.8289
4.30391
4.36471
4.27834
4.09916
3.8477
3.6861
3.68894
3.69871
3.70207
3.70888
3.7194
3.73505
3.75764
1
0.999998
0.999999
0.999999
0.999987
1.00003
0.999917
1.0019
1.03157
1.31309
2.02339
3.17605
3.89301
4.12438
4.06392
3.95672
3.81178
3.7749
3.75358
3.70965
3.69361
3.6989
3.71156
3.73223
1
1
1
1
0.999999
0.999999
0.999989
0.999993
0.999895
1.00178
1.03893
1.36375
2.20388
3.33432
4.00081
4.0742
4.01368
3.94678
3.83361
3.7327
3.7086
3.70997
3.71741
3.73322
1
1
1
1
1
1
1
1
0.999989
0.99999
0.999908
1.0031
1.08034
1.49373
2.51685
3.51283
4.00054
3.98941
3.92289
3.83571
3.77011
3.75504
3.73365
3.7334
1
1
1
1
1
1
1
1
1
0.999999
0.99999
0.999983
1.00004
1.00845
1.17856
1.7948
2.9155
3.58498
3.91323
3.90698
3.85086
3.76962
3.74193
3.71701
1
1
1
1
1
1
1
1
1
1
1
0.999998
0.999998
0.99997
1.00149
1.03148
1.37254
2.20985
3.38724
3.71177
3.7737
3.7462
3.73932
3.71278
1
1
1
1
1
1
1
1
1
1
1
1
1
0.999994
0.999995
0.999978
1.00929
1.1182
1.74541
2.78389
3.60643
3.80873
3.79713
3.77859
1
1
1
1
1
1
1
1
1
1
1
1
1
1
0.999999
0.999995
0.999977
1.00094
1.04627
1.40064
2.4169
3.22238
3.66588
3.79411
1
1
1
1
1
1
1
1
1
1
1
1
1
1
1
1
0.999997
0.999993
1.00024
1.01441
1.21411
2.01378
3.12043
3.66211
1
1
1
1
1
1
1
1
1
1
1
1
1
1
1
1
1
0.999999
0.999997
1.00002
1.00536
1.12863
1.74038
2.72755
1
1
1
1
1
1
1
1
1
1
1
1
1
1
1
1
1
1
0.999999
0.999999
0.999999
1.00261
1.06238
1.49396
1
1
1
1
1
1
1
1
1
1
1
1
1
1
1
1
1
1
1
1
1
0.999997
1.00085
1.03209
1
1
1
1
1
1
1
1
1
1
1
1
1
1
1
1
1
1
1
1
1
0.999999
0.999996
1.00013
1
1
1
1
1
1
1
1
1
1
1
1
1
1
1
1
1
1
1
1
1
1
0.999999
0.999998
1
1
1
1
1
1
1
1
1
1
1
1
1
1
1
1
1
1
1
1
1
1
1
0.999995
1
1
1
1
1
1
1
1
1
1
1
1
1
1
1
1
1
1
1
1
1
0.999999
1.00001
0.999986
1
1
1
1
1
1
1
1
1
1
1
1
1
1
1
1
1
1
1
1
1
0.999998
1.00101
1.03216
1
1
1
1
1
1
1
1
1
1
1
1
1
1
1
1
1
1
0.999999
0.999999
0.999999
1.00223
1.06391
1.54619
1
1
1
1
1
1
1
1
1
1
1
1
1
1
1
1
1
0.999999
0.999997
1.00001
1.0062
1.11567
1.75172
2.80531
1
1
1
1
1
1
1
1
1
1
1
1
1
1
1
1
0.999997
0.999993
1.00026
1.01379
1.21839
1.97907
3.20953
3.58543
1
1
1
1
1
1
1
1
1
1
1
1
1
1
0.999999
0.999995
0.999977
1.00094
1.04624
1.40356
2.38439
3.23713
3.70936
3.78031
1
1
1
1
1
1
1
1
1
1
1
1
1
0.999994
0.999995
0.999978
1.00929
1.11817
1.74407
2.79352
3.58806
3.81223
3.80363
3.77715
1
1
1
1
1
1
1
1
1
1
1
0.999998
0.999998
0.99997
1.00149
1.03148
1.37269
2.20904
3.38834
3.71156
3.77263
3.74644
3.74184
3.71427
1
1
1
1
1
1
1
1
1
0.999999
0.99999
0.999983
1.00004
1.00845
1.17852
1.79496
2.9151
3.58482
3.91386
3.90714
3.85098
3.77005
3.74329
3.71718
1
1
1
1
1
1
1
1
0.999989
0.99999
0.999908
1.0031
1.08035
1.49371
2.51677
3.51305
4.00041
3.98935
3.923
3.83576
3.76988
3.75511
3.73392
3.73318
1
1
1
1
0.999999
0.999999
0.999989
0.999993
0.999895
1.00178
1.03894
1.36374
2.20392
3.33416
4.00092
4.07425
4.01372
3.94674
3.83359
3.73277
3.70851
3.71
3.71755
3.7331
1
0.999998
0.999999
0.999999
0.999987
1.00003
0.999917
1.0019
1.03157
1.31309
2.02337
3.17612
3.89294
4.12436
4.06394
3.95677
3.81183
3.77474
3.75367
3.70978
3.69357
3.69889
3.71153
3.73219
0.999999
0.999946
1.00024
1.00018
1.00367
1.02336
1.109
1.36175
1.98281
3.00051
3.82889
4.30392
4.36469
4.27835
4.09916
3.84772
3.68609
3.68886
3.69874
3.70209
3.70886
3.71938
3.73503
3.75763
1.00208
1.01925
1.08888
1.21256
1.47839
1.85184
2.38092
2.96844
3.59641
3.83725
4.03131
4.0412
3.98646
3.8558
3.75165
3.73561
3.70778
3.69299
3.69977
3.70812
3.72354
3.74339
3.76624
3.77626
1.29236
1.76726
2.31576
2.9854
3.64296
4.27875
4.84901
5.30549
5.3716
5.16868
4.71911
4.21718
3.82398
3.65906
3.56508
3.58113
3.62363
3.66466
3.69514
3.71555
3.72932
3.7516
3.77634
3.78013
2.66841
1.69378
1.13369
0.868493
0.68941
0.623622
0.63588
0.720084
0.81783
0.851378
0.899038
0.954496
0.981383
0.993432
1.011
1.04507
1.06898
1.07238
1.07005
1.06983
1.06498
1.05232
1.05327
1.11013
1.49289
2.77616
4.60334
6.79904
8.93598
9.38425
8.68195
7.56903
6.86827
6.54196
6.35563
6.15633
5.91302
5.65616
5.42407
5.21097
5.0085
4.81944
4.64353
4.48181
4.33717
4.20858
4.08244
3.93722
3.75477
3.54807
3.39326
3.3189
3.2668
3.2127
3.15235
3.08163
2.99176
2.85955
2.69387
2.5814
2.5261
2.47991
2.43703
2.38913
2.33781
2.28189
2.22714
2.1663
2.09546
2.02688
1.97649
2.00323
2.15503
2.5385
3.25174
3.98079
4.49629
5.0036
5.24691
5.18714
4.96139
4.67891
4.51009
4.45697
4.40986
4.35979
4.28754
4.20072
4.03919
3.78071
3.66585
3.6302
3.59806
3.57882
3.57995
3.51922
3.38383
2.76535
2.13678
1.7706
1.51974
1.23878
1.0727
1.05471
1.00782
0.953937
0.924085
0.909832
0.91736
0.928482
0.947121
0.975037
1.00026
1.01893
1.02212
1.028
1.0263
1.03234
1.11574
1.58751
2.54158
3.08847
3.56115
4.23704
5.63437
6.79415
7.47934
7.3975
7.05082
6.71298
6.44399
6.18404
5.92123
5.704
5.50154
5.28756
5.0809
4.89222
4.71855
4.55745
4.41026
4.27104
4.13004
3.97756
3.80542
3.62608
3.47548
3.37934
3.3237
3.26994
3.20638
3.12911
3.03249
2.90299
2.7501
2.63837
2.57897
2.53281
2.48458
2.43289
2.38072
2.32391
2.2686
2.2144
2.15367
2.10828
2.14599
2.33888
2.64794
3.02447
3.29215
3.63918
4.01184
4.29876
4.46968
4.55037
4.61579
4.60498
4.55293
4.52386
4.46623
4.39882
4.31892
4.21855
4.05787
3.82653
3.69151
3.64924
3.61822
3.60609
3.60425
3.5398
3.6548
3.34625
2.87112
2.33961
1.99046
1.70655
1.41519
1.22729
1.12512
1.03613
0.948563
0.916474
0.922973
0.937245
0.936456
0.937778
0.948302
0.969411
0.984847
0.996011
1.01586
1.13871
1.77007
2.64623
3.28292
3.34142
3.31312
3.32691
3.56925
4.59787
6.10566
7.1201
7.21441
6.98222
6.48976
6.12585
5.86591
5.63451
5.39313
5.15288
4.94582
4.77122
4.61272
4.46309
4.32295
4.19153
4.05943
3.92308
3.78362
3.63255
3.46565
3.31657
3.22303
3.17074
3.12413
3.06215
2.97875
2.87642
2.76038
2.62295
2.51591
2.46697
2.42506
2.37897
2.32979
2.28333
2.23983
2.20631
2.20196
2.26445
2.53277
2.87684
3.16
3.36453
3.38395
3.3974
3.46311
3.58328
3.78123
4.06028
4.36508
4.47863
4.5235
4.55447
4.51824
4.43556
4.32155
4.18927
4.03096
3.85308
3.72454
3.65644
3.62097
3.58187
3.54572
3.48095
3.71814
3.60454
3.3353
2.8957
2.46182
2.18652
1.87173
1.53175
1.39844
1.32678
1.19109
1.04675
1.02155
1.02492
1.00335
0.957077
0.9496
0.946041
0.947149
0.95739
1.09413
1.78296
2.8047
3.19027
3.3372
3.30602
3.20876
3.10114
2.9934
3.07552
3.66187
5.13725
6.36347
6.52324
6.46124
6.20814
5.93179
5.64802
5.3752
5.12766
4.91899
4.73889
4.56961
4.41728
4.28021
4.16186
4.0617
3.95836
3.83476
3.67753
3.48976
3.33172
3.21583
3.12621
3.07169
3.0331
2.98511
2.9077
2.801
2.65475
2.5115
2.43216
2.39649
2.3648
2.31769
2.29373
2.27347
2.32479
2.50367
2.85363
3.19205
3.34207
3.44269
3.49293
3.45563
3.35953
3.2942
3.23121
3.25844
3.38265
3.68978
4.02132
4.26997
4.3857
4.38308
4.35539
4.30261
4.19732
4.04238
3.88896
3.77591
3.70122
3.64792
3.587
3.53218
3.45952
3.73314
3.70525
3.57926
3.31464
2.90936
2.56222
2.30525
1.98194
1.62379
1.51699
1.4459
1.32477
1.13633
1.0855
1.0679
1.01309
0.967206
0.951725
0.970542
1.17297
1.88079
2.91046
3.25015
3.24482
3.21846
3.14119
3.03983
2.93658
2.84491
2.71531
2.71859
3.01742
4.11743
5.35795
6.12669
6.20838
6.06945
5.7521
5.39797
5.08247
4.84325
4.67687
4.53737
4.40517
4.26812
4.12143
3.97663
3.84722
3.72995
3.6033
3.4682
3.34335
3.22927
3.13429
3.05651
2.97851
2.90304
2.82872
2.74105
2.63892
2.53183
2.44505
2.37966
2.34231
2.3298
2.35282
2.50454
2.82789
3.24392
3.55763
3.57118
3.53772
3.515
3.47347
3.41018
3.33594
3.25387
3.19093
3.11843
3.08307
3.14914
3.39226
3.71233
4.03627
4.23162
4.25734
4.22993
4.13275
4.00835
3.8978
3.82286
3.75906
3.70126
3.63376
3.55555
3.43295
3.7433
3.73561
3.70015
3.56217
3.30618
2.93682
2.62333
2.37571
2.08304
1.76959
1.6559
1.56615
1.40881
1.26316
1.19931
1.13483
1.06848
1.08952
1.3634
2.16341
3.1027
3.40157
3.35113
3.21802
3.10184
3.00244
2.90714
2.8113
2.71267
2.59472
2.51447
2.46023
2.58446
3.20705
4.41425
5.46951
5.68719
5.62722
5.40097
5.10883
4.83768
4.62173
4.46462
4.34835
4.24199
4.12042
3.97832
3.82044
3.67475
3.57897
3.50156
3.41098
3.30994
3.19355
3.05467
2.92923
2.84708
2.78978
2.73736
2.67404
2.59594
2.48646
2.38902
2.37205
2.42666
2.69904
3.16362
3.61929
3.84354
3.84797
3.76455
3.6243
3.52929
3.45421
3.38252
3.33102
3.28374
3.21886
3.12331
3.05227
2.99803
3.01395
3.12838
3.36507
3.68872
3.90522
3.99882
3.96682
3.93556
3.93088
3.89544
3.84032
3.7672
3.68049
3.58031
3.4183
3.72625
3.73348
3.72098
3.68535
3.54385
3.28534
2.97431
2.69448
2.42418
2.12014
1.92432
1.81089
1.65657
1.45681
1.35397
1.27341
1.30597
1.6613
2.6244
3.49311
3.67622
3.55712
3.35303
3.18632
3.07105
2.96608
2.8599
2.76319
2.65888
2.54696
2.45276
2.38224
2.28084
2.28963
2.58307
3.50403
4.63753
5.30203
5.26791
5.09789
4.82912
4.59236
4.40997
4.28712
4.18682
4.07936
3.94275
3.78703
3.6426
3.5246
3.42512
3.33997
3.25096
3.13937
3.00802
2.89703
2.81961
2.75119
2.68078
2.61505
2.55594
2.48259
2.45743
2.57545
2.96539
3.4825
3.88437
4.00372
3.99165
3.91877
3.78419
3.65776
3.55938
3.47016
3.38151
3.30943
3.24638
3.18425
3.10822
3.03588
2.98446
2.95838
2.92182
2.95342
3.07111
3.29335
3.57868
3.75524
3.82021
3.87121
3.90358
3.86486
3.78126
3.69831
3.61008
3.43114
3.70012
3.70265
3.69964
3.68827
3.64607
3.50601
3.25573
2.9937
2.75302
2.47349
2.16155
2.0396
1.91124
1.72863
1.56655
1.67018
2.24895
3.33462
4.13375
4.12054
3.93687
3.67568
3.44268
3.27593
3.1366
3.00355
2.87139
2.76291
2.64399
2.53265
2.43531
2.35199
2.25289
2.16603
2.09317
2.1897
2.72039
3.78329
4.66706
4.89364
4.83553
4.64519
4.45214
4.28734
4.13324
3.99132
3.85799
3.72687
3.60268
3.4941
3.39975
3.30885
3.21427
3.10733
2.98178
2.86149
2.77403
2.71692
2.6591
2.63598
2.59269
2.61879
2.83176
3.3402
3.81541
4.10334
4.17656
4.15072
4.06066
3.92888
3.80116
3.69267
3.59293
3.49498
3.39534
3.30646
3.23245
3.17001
3.10988
3.05022
3.00233
2.95454
2.90318
2.85467
2.81252
2.84264
2.9861
3.25746
3.49724
3.66767
3.75637
3.78552
3.76431
3.7204
3.64757
3.45497
3.73513
3.70981
3.70423
3.69655
3.68819
3.62949
3.48727
3.23911
2.99917
2.76869
2.51893
2.25048
2.08123
2.0075
2.23666
3.12402
4.31423
4.79268
4.68717
4.38407
4.06687
3.8072
3.60031
3.42964
3.26956
3.10943
2.95276
2.80924
2.66195
2.53408
2.43821
2.34832
2.2446
2.13063
2.04853
1.98323
1.99412
2.24274
3.01111
4.00502
4.56964
4.58111
4.51032
4.31164
4.1093
3.93024
3.78709
3.6671
3.55894
3.45897
3.36597
3.26829
3.1644
3.05931
2.94151
2.8412
2.76951
2.72402
2.69586
2.71059
2.85965
3.21543
3.76843
4.24567
4.2842
4.24979
4.18663
4.09443
3.99794
3.90031
3.80986
3.73316
3.64442
3.53664
3.41218
3.29176
3.21033
3.14993
3.10429
3.06732
3.03257
2.98785
2.92943
2.84919
2.77691
2.69849
2.70477
2.79035
2.99407
3.24253
3.46629
3.6273
3.69017
3.67886
3.64188
3.48369
3.77836
3.74299
3.72298
3.72174
3.72527
3.70929
3.6351
3.47364
3.25701
2.99372
2.77341
2.48747
2.51925
3.02637
4.22635
5.42662
5.59586
5.39693
5.01691
4.63782
4.30478
4.0251
3.78595
3.57274
3.37835
3.19832
3.0417
2.89459
2.74371
2.60298
2.48497
2.36032
2.2309
2.10449
2.02126
1.95341
1.90643
1.86946
1.96071
2.4431
3.34227
4.06149
4.2452
4.21279
4.08287
3.90977
3.7654
3.64053
3.52323
3.41312
3.31617
3.22288
3.12792
3.03469
2.93891
2.84264
2.79089
2.75958
2.82824
3.17495
3.74075
4.19138
4.57722
4.60665
4.51996
4.30712
4.15309
4.03793
3.95364
3.88698
3.82647
3.76438
3.68235
3.57115
3.42616
3.28218
3.19577
3.15006
3.11338
3.07669
3.03802
2.99524
2.94602
2.87102
2.76496
2.67496
2.64561
2.63277
2.66545
2.7746
2.97559
3.20341
3.39209
3.48417
3.51123
3.46653
3.64799
3.6571
3.69276
3.70843
3.71652
3.72691
3.69203
3.6056
3.43407
3.23951
3.01483
3.2018
4.24512
5.7194
6.41026
6.35368
6.02355
5.62471
5.24305
4.88862
4.56229
4.26055
3.98256
3.72691
3.49364
3.27922
3.09175
2.9288
2.78861
2.669
2.55783
2.4252
2.28284
2.1496
2.03582
1.94697
1.87053
1.81187
1.77192
1.79312
2.03679
2.68415
3.46643
3.86981
3.90764
3.86565
3.74727
3.60874
3.47737
3.36486
3.25845
3.16419
3.09963
3.02726
2.96441
2.88233
2.86758
3.02376
3.50445
4.22156
4.60181
4.70444
4.69478
4.63411
4.48208
4.29039
4.14362
4.02872
3.94031
3.87678
3.82899
3.78293
3.71778
3.60822
3.44614
3.28944
3.20204
3.15424
3.11721
3.0814
3.04393
3.00481
2.95973
2.89135
2.77745
2.67
2.61775
2.59347
2.58497
2.57446
2.60978
2.7227
2.9156
3.1139
3.28766
3.35748
3.46413
3.79309
3.81177
3.76895
3.70602
3.69709
3.69705
3.6662
3.54913
3.56258
4.15351
5.70853
7.22334
7.63026
7.41717
6.84979
6.30178
5.84806
5.46282
5.11194
4.78075
4.46287
4.15779
3.8711
3.61172
3.38418
3.19147
3.02247
2.86215
2.7079
2.56419
2.43542
2.31883
2.20425
2.08942
1.98785
1.89264
1.81666
1.74597
1.69301
1.67006
1.75635
2.15147
2.86722
3.38857
3.60295
3.61779
3.53356
3.42866
3.33988
3.23879
3.13652
3.0449
3.01094
2.98699
3.05776
3.39047
3.99115
4.58683
4.98512
5.01055
4.94693
4.7725
4.58497
4.42005
4.2802
4.17205
4.06859
3.97477
3.89932
3.83591
3.77265
3.70135
3.60692
3.47217
3.32092
3.22667
3.17173
3.13031
3.09307
3.05458
3.01229
2.9585
2.87818
2.77195
2.67439
2.61877
2.5849
2.55704
2.53616
2.51023
2.49458
2.53116
2.65233
2.83688
3.09058
2.50278
3.52489
3.70572
3.67532
3.66616
3.67028
3.68396
3.72869
4.01408
5.31814
7.55257
8.47564
8.35252
8.05816
7.58057
7.10577
6.59735
6.10082
5.66633
5.2927
4.95632
4.63543
4.3161
4.00197
3.71629
3.47251
3.26117
3.07773
2.92537
2.7921
2.65253
2.49965
2.34934
2.2005
2.08505
2.01152
1.94026
1.85976
1.77748
1.6921
1.63425
1.59241
1.6078
1.79088
2.29235
2.89652
3.29547
3.41791
3.41324
3.33007
3.21694
3.12809
3.06147
3.11136
3.35389
3.91555
4.53143
4.92085
5.05376
5.07071
5.02794
4.95731
4.80668
4.57973
4.38782
4.28106
4.20457
4.11657
4.02353
3.93246
3.84411
3.76118
3.6855
3.60491
3.49064
3.35775
3.26142
3.19526
3.14324
3.09879
3.05576
3.00862
2.95209
2.87774
2.78404
2.68963
2.62543
2.5881
2.55664
2.52951
2.48868
2.45164
2.40936
2.41098
2.44859
2.67954
1.36154
2.38644
3.14804
3.61028
3.68588
3.72324
3.95394
4.74367
6.53721
8.81654
9.98161
9.80874
8.99287
8.21143
7.69186
7.25512
6.79677
6.30491
5.8352
5.43528
5.08922
4.7537
4.41942
4.09772
3.80325
3.55839
3.35741
3.16186
2.96554
2.79436
2.67458
2.5667
2.43515
2.2925
2.15456
2.0239
1.90643
1.81248
1.74699
1.6765
1.62269
1.56317
1.52653
1.50374
1.57162
1.85725
2.45401
2.90708
3.21241
3.23678
3.19973
3.26241
3.5354
3.94977
4.57075
5.09886
5.40625
5.41382
5.29303
5.08882
4.94274
4.86112
4.74792
4.57079
4.39023
4.27107
4.20445
4.13839
4.06443
3.97689
3.8767
3.77312
3.66944
3.56129
3.44757
3.35069
3.27765
3.21552
3.15956
3.10842
3.06018
3.00823
2.94511
2.87452
2.79819
2.72597
2.67369
2.62829
2.58275
2.53801
2.49069
2.442
2.40329
2.35571
2.29152
2.34662
1.02272
1.28693
2.03171
3.12989
3.49022
4.01504
5.8971
7.82771
9.43284
10.1176
10.091
9.87552
9.32783
8.55003
7.89715
7.357
6.88204
6.42719
5.97482
5.54548
5.16497
4.81681
4.46872
4.15054
3.88219
3.66311
3.46339
3.24793
3.03402
2.85943
2.70622
2.55225
2.39937
2.29336
2.19865
2.0719
1.94169
1.83633
1.76274
1.69529
1.63212
1.57287
1.51312
1.45589
1.40029
1.40195
1.56506
2.02446
2.67195
3.0313
3.27752
4.01978
4.81006
5.26543
5.53731
5.54758
5.51342
5.41549
5.2895
5.13654
4.95816
4.81165
4.69074
4.58358
4.48063
4.35254
4.24411
4.16106
4.08377
3.99943
3.90198
3.79698
3.68559
3.56783
3.46663
3.39249
3.32747
3.26817
3.21296
3.15702
3.09753
3.03078
2.95617
2.88434
2.82022
2.74601
2.65796
2.59437
2.55065
2.51128
2.47645
2.44479
2.41421
2.36453
2.26257
2.19316
1.00039
1.01839
1.16523
2.01567
3.73601
5.64304
8.36397
9.78612
10.9166
10.721
10.1692
9.77448
9.3917
8.79034
8.0884
7.41205
6.84549
6.43422
6.12758
5.79229
5.36997
4.93611
4.52513
4.17778
3.90058
3.64363
3.41991
3.29683
3.17686
3.00658
2.80153
2.61199
2.46212
2.33923
2.20933
2.05246
1.9366
1.8929
1.84129
1.78031
1.70173
1.61819
1.53132
1.45524
1.38714
1.32727
1.32403
1.42406
1.87197
2.88494
3.85532
5.09427
5.81297
6.09846
6.04773
5.87357
5.56054
5.3226
5.22429
5.15262
5.02674
4.83556
4.65672
4.51838
4.40963
4.31577
4.21955
4.13326
4.0565
3.98717
3.91629
3.82235
3.69106
3.54996
3.43157
3.35344
3.29601
3.23899
3.18083
3.12191
3.0586
3.00414
2.96782
2.92985
2.87237
2.7811
2.66081
2.5827
2.54385
2.51654
2.49165
2.46205
2.4226
2.36239
2.25037
2.1639
1.00046
1.00969
1.21525
1.90628
3.64184
6.33174
8.07466
9.67498
10.9054
10.4962
9.88657
9.6623
9.42077
8.96016
8.26707
7.57302
6.99168
6.53148
6.10043
5.67464
5.24013
4.8419
4.5654
4.30493
4.02311
3.75221
3.51018
3.28624
3.08103
2.89861
2.70603
2.54516
2.48154
2.40808
2.28238
2.12435
1.96596
1.83922
1.75575
1.701
1.64489
1.57316
1.50178
1.46265
1.41814
1.35581
1.33574
1.42965
1.8005
2.71213
4.11502
5.12256
5.62914
6.10346
6.05738
5.71806
5.46901
5.33602
5.23979
5.17569
5.06194
4.88639
4.70934
4.52416
4.36639
4.29832
4.24215
4.17586
4.10776
4.04382
3.97331
3.86387
3.71012
3.55021
3.42768
3.34796
3.29209
3.23873
3.17952
3.11938
3.06229
3.01527
2.96822
2.91083
2.84252
2.75531
2.66637
2.61314
2.58561
2.55986
2.53203
2.4981
2.44997
2.37112
2.24961
2.1606
1.0276
1.22062
2.09233
2.95629
3.43365
4.64048
5.71244
7.70592
9.31197
9.82126
9.85633
9.77541
9.33177
8.65272
8.02354
7.47808
6.97845
6.4971
6.0245
5.59262
5.21051
4.83811
4.4591
4.12128
3.84232
3.6039
3.3952
3.20525
3.03575
2.86804
2.70862
2.57531
2.43939
2.29688
2.1756
2.06501
1.95254
1.8454
1.75331
1.68077
1.62706
1.58415
1.52084
1.46009
1.40786
1.4206
1.58766
2.06028
2.66002
2.92386
3.45978
4.01969
4.57725
5.28701
5.42399
5.43907
5.46084
5.43868
5.32709
5.20769
5.05547
4.8876
4.70559
4.53038
4.39183
4.27176
4.17785
4.10911
4.04757
3.98408
3.91657
3.84468
3.74267
3.59685
3.42585
3.31014
3.26639
3.23264
3.19733
3.15315
3.10718
3.05592
2.99887
2.93571
2.85609
2.74824
2.64291
2.58727
2.55307
2.52021
2.48611
2.44994
2.41079
2.35134
2.25628
2.20073
1.39171
2.2128
3.26847
3.56189
3.70771
3.82216
3.94622
4.60832
6.4804
8.77501
9.85403
9.78061
9.1071
8.34052
7.80087
7.32857
6.83489
6.31839
5.82638
5.39621
5.02703
4.68608
4.35562
4.0559
3.80042
3.58835
3.39309
3.19628
2.99743
2.80714
2.64339
2.51253
2.38691
2.25541
2.1369
2.06187
1.99092
1.90659
1.81402
1.71652
1.62723
1.5506
1.51743
1.48478
1.54613
1.87743
2.4409
2.99856
3.24448
3.22564
3.22436
3.24222
3.39004
3.86808
4.58454
5.12049
5.41661
5.46841
5.3612
5.16312
4.99041
4.87287
4.72785
4.55063
4.38205
4.25102
4.16879
4.11092
4.05209
3.98212
3.89892
3.80218
3.69087
3.56334
3.41981
3.31794
3.26178
3.20901
3.15258
3.10544
3.06181
3.01318
2.9566
2.89198
2.81755
2.72761
2.6451
2.59382
2.55417
2.51952
2.48205
2.44542
2.40932
2.35813
2.29145
2.34947
2.522
3.36431
3.70115
3.72178
3.74184
3.75689
3.72172
3.71737
3.98709
5.37104
7.60539
8.54206
8.49092
8.17523
7.68294
7.10961
6.54497
6.03514
5.59192
5.20866
4.8737
4.57253
4.29408
4.02438
3.76029
3.5155
3.29567
3.09719
2.92581
2.78288
2.64307
2.48735
2.32762
2.20289
2.10904
2.00452
1.90221
1.8291
1.7681
1.70309
1.63869
1.56874
1.58058
1.75337
2.28056
2.90778
3.3156
3.45754
3.43531
3.34426
3.21372
3.12705
3.04891
3.09145
3.38472
3.96832
4.57508
5.01614
5.11346
5.08805
5.01695
4.90258
4.73776
4.54324
4.37685
4.2598
4.18672
4.1193
4.04668
3.9641
3.87136
3.77496
3.67549
3.56693
3.44405
3.32433
3.24668
3.19239
3.14335
3.10108
3.06079
3.01733
2.96536
2.88894
2.78526
2.71167
2.66646
2.6223
2.57734
2.53715
2.49379
2.46007
2.41789
2.41716
2.45531
2.68642
3.4297
3.75076
3.80014
3.78939
3.75755
3.73258
3.67982
3.63958
3.53874
3.56354
4.18439
5.73816
7.26578
7.70514
7.46663
6.82734
6.23902
5.77648
5.39187
5.04817
4.73455
4.44577
4.17651
3.91854
3.67128
3.442
3.23693
3.0491
2.87785
2.71806
2.56342
2.41707
2.29265
2.17954
2.07358
1.9821
1.89339
1.81821
1.75555
1.70675
1.68075
1.75801
2.14034
2.81558
3.42318
3.60939
3.63016
3.55953
3.44775
3.34346
3.23746
3.12895
3.03188
2.98908
2.96644
3.0536
3.39723
4.02756
4.63713
4.9962
4.99375
4.89482
4.71343
4.55494
4.41616
4.29248
4.19104
4.09459
4.00741
3.92594
3.84228
3.75802
3.67124
3.57008
3.44476
3.31715
3.23399
3.18561
3.14405
3.10765
3.07054
3.02759
2.97069
2.87888
2.75587
2.66408
2.61829
2.58701
2.56491
2.5448
2.52526
2.50685
2.53708
2.65312
2.8324
3.09028
3.60449
3.64474
3.68163
3.72434
3.73611
3.72279
3.6866
3.59457
3.4259
3.24005
3.01458
3.1903
4.19242
5.68845
6.37882
6.30018
5.96074
5.56577
5.19681
4.86411
4.56587
4.29206
4.03778
3.79516
3.55733
3.3278
3.12277
2.93801
2.77953
2.64131
2.51659
2.38629
2.25935
2.13529
2.0286
1.95276
1.88591
1.82979
1.79255
1.80952
2.02585
2.68304
3.45642
3.84869
3.90758
3.87017
3.75077
3.62313
3.49729
3.38014
3.27144
3.16376
3.06991
2.98436
2.92751
2.8637
2.86862
3.03317
3.52434
4.16841
4.53922
4.67227
4.67534
4.62249
4.48927
4.32562
4.1798
4.05909
3.96747
3.89521
3.81966
3.74148
3.6615
3.568
3.44814
3.31923
3.22415
3.17586
3.14303
3.10978
3.07249
3.02381
2.95313
2.84529
2.72585
2.64908
2.61928
2.59995
2.59696
2.59324
2.63371
2.73001
2.9011
3.09876
3.26909
3.34463
3.76923
3.73997
3.73419
3.73642
3.73011
3.69869
3.61453
3.45946
3.25173
2.99641
2.77237
2.48388
2.50592
2.99038
4.18308
5.36647
5.58308
5.37974
5.00521
4.64637
4.33988
4.07657
3.84379
3.62909
3.41934
3.21582
3.03286
2.86074
2.70483
2.56451
2.44537
2.32945
2.22035
2.10789
2.02794
1.96698
1.92997
1.89547
1.9809
2.46061
3.33286
4.08902
4.22971
4.16578
4.01765
3.87376
3.75214
3.64726
3.54691
3.44117
3.33256
3.21645
3.10971
3.00935
2.92333
2.8423
2.81047
2.7792
2.84143
3.15395
3.68501
4.18797
4.56176
4.58873
4.53107
4.35011
4.18532
4.06275
3.96645
3.89122
3.81198
3.73008
3.64635
3.55303
3.4418
3.32699
3.23615
3.17585
3.13706
3.0985
3.05222
2.9909
2.91095
2.81237
2.72312
2.67185
2.66012
2.65539
2.69572
2.79514
2.98705
3.18865
3.37456
3.44577
3.46041
3.42578
3.72948
3.71115
3.70769
3.69962
3.6908
3.62717
3.48367
3.23861
3.00087
2.77029
2.51952
2.2484
2.08021
2.00438
2.22643
3.11185
4.33463
4.80809
4.70428
4.4082
4.10376
3.84926
3.63946
3.45951
3.28008
3.10075
2.93021
2.77104
2.61892
2.49416
2.4016
2.32226
2.24038
2.14636
2.0719
2.00526
2.01698
2.26594
3.03304
4.00818
4.52456
4.54645
4.46038
4.25948
4.07582
3.91468
3.78182
3.67242
3.58119
3.49099
3.38918
3.26838
3.14767
3.03745
2.9369
2.86226
2.80283
2.75229
2.70762
2.70922
2.84641
3.22157
3.76882
4.18418
4.31366
4.29486
4.21858
4.10985
3.99556
3.88962
3.79264
3.70408
3.61952
3.53185
3.43537
3.33736
3.25143
3.17971
3.11695
3.06258
3.00709
2.94614
2.88007
2.8109
2.7524
2.73018
2.74944
2.83253
3.03383
3.26035
3.4628
3.57386
3.64861
3.63797
3.5924
3.46317
3.69974
3.70358
3.7018
3.68971
3.64628
3.50583
3.25538
2.99274
2.75196
2.47342
2.16154
2.03929
1.91057
1.72837
1.5663
1.67231
2.27795
3.37178
4.15622
4.14438
3.96948
3.71024
3.46228
3.27278
3.11424
2.97075
2.83599
2.71799
2.5937
2.49603
2.41576
2.35411
2.26928
2.19697
2.12458
2.21489
2.75933
3.79561
4.66284
4.8368
4.77586
4.60278
4.42212
4.27432
4.14603
4.01011
3.87199
3.74156
3.62391
3.51192
3.40167
3.28891
3.18308
3.08597
2.99025
2.90403
2.82012
2.74749
2.6743
2.64002
2.581
2.60687
2.8364
3.30808
3.80844
4.14128
4.19537
4.15695
4.03509
3.88789
3.77617
3.68006
3.5924
3.50721
3.42224
3.34171
3.2605
3.17824
3.09153
3.02118
2.9624
2.91064
2.86514
2.84107
2.84642
2.89822
3.03497
3.30949
3.53168
3.67014
3.71091
3.73119
3.72456
3.68767
3.63301
3.48809
3.72593
3.73272
3.72046
3.68516
3.5439
3.28553
2.97401
2.69422
2.42351
2.12005
1.92421
1.8106
1.65667
1.45578
1.35331
1.27387
1.31091
1.68096
2.63238
3.51237
3.69574
3.56973
3.35062
3.1723
3.04754
2.9369
2.83042
2.73244
2.6302
2.53581
2.45596
2.40069
2.31087
2.32495
2.62285
3.53587
4.69306
5.26813
5.21218
5.07562
4.82612
4.59402
4.42993
4.31786
4.22134
4.10918
3.96778
3.80143
3.64395
3.51688
3.40905
3.31085
3.21821
3.12413
3.03092
2.94618
2.86373
2.783
2.70469
2.62075
2.54515
2.44994
2.44503
2.56789
2.94415
3.48074
3.91999
3.99966
3.96733
3.89268
3.78901
3.68657
3.5871
3.49438
3.40682
3.33474
3.2584
3.16663
3.07315
3.00071
2.95541
2.92462
2.90803
2.96116
3.11681
3.3505
3.58821
3.80585
3.82558
3.83756
3.83234
3.80282
3.75089
3.69377
3.63661
3.49305
3.743
3.73544
3.70005
3.56228
3.3065
2.93698
2.62346
2.37576
2.08257
1.76962
1.65586
1.56593
1.40922
1.26208
1.1985
1.13577
1.06908
1.09108
1.3594
2.15809
3.1062
3.39107
3.32032
3.181
3.0744
2.97584
2.88734
2.80186
2.71546
2.60807
2.5366
2.48292
2.6097
3.25527
4.47292
5.53488
5.66495
5.58965
5.3272
5.04049
4.81308
4.63882
4.49483
4.3738
4.27177
4.1623
4.02362
3.84336
3.65769
3.51223
3.40779
3.329
3.25544
3.17152
3.06895
2.96375
2.89489
2.84375
2.77761
2.67931
2.55212
2.43048
2.39232
2.38865
2.43088
2.6945
3.17846
3.62551
3.81308
3.83735
3.78766
3.68273
3.57312
3.48069
3.39763
3.32683
3.24951
3.15256
3.07129
3.01045
2.97592
3.00519
3.14609
3.40395
3.72936
3.98211
4.03204
3.94769
3.88055
3.85676
3.83992
3.84047
3.79908
3.73845
3.66789
3.50521
3.73305
3.70523
3.57931
3.31466
2.90932
2.56214
2.30522
1.98192
1.62366
1.51693
1.44589
1.32467
1.13657
1.08512
1.06772
1.01363
0.967538
0.951312
0.969013
1.16538
1.8534
2.9206
3.21287
3.20936
3.18723
3.11987
3.02709
2.94136
2.86403
2.74567
2.74952
3.06049
4.15015
5.42202
6.15687
6.17115
5.9844
5.61215
5.27031
5.01757
4.83114
4.69433
4.59586
4.49689
4.36963
4.21989
4.0496
3.86877
3.69564
3.54794
3.42279
3.32767
3.25501
3.18643
3.10485
3.01439
2.92706
2.83383
2.73518
2.62583
2.50758
2.45468
2.41289
2.36574
2.33687
2.3673
2.52078
2.8531
3.24928
3.55329
3.59016
3.55928
3.52698
3.46111
3.39141
3.31658
3.23505
3.1693
3.09004
3.08264
3.16446
3.43078
3.77185
4.07997
4.29223
4.29864
4.23942
4.07853
3.89917
3.81175
3.77612
3.75076
3.71924
3.67792
3.62335
3.50094
3.71812
3.60456
3.33534
2.89571
2.46182
2.18653
1.87175
1.53179
1.39843
1.32677
1.19114
1.04674
1.02156
1.0249
1.00324
0.957353
0.949704
0.945775
0.946806
0.956549
1.08692
1.77256
2.80396
3.1762
3.31803
3.30587
3.21659
3.12322
3.02291
3.10928
3.70475
5.18694
6.38287
6.51957
6.43604
6.15576
5.85409
5.57573
5.33348
5.13517
4.96673
4.81041
4.64136
4.4648
4.3022
4.14694
4.00241
3.87378
3.7478
3.61222
3.47779
3.35947
3.25376
3.16333
3.09969
3.04668
2.97461
2.86595
2.73385
2.60365
2.5143
2.45715
2.40684
2.36409
2.32209
2.29071
2.26936
2.3234
2.51167
2.85569
3.20333
3.3491
3.43969
3.46233
3.40637
3.3208
3.26874
3.23384
3.26393
3.40506
3.72941
4.10365
4.32492
4.41209
4.39303
4.34346
4.26143
4.13715
3.98549
3.86753
3.77973
3.72503
3.69002
3.65041
3.58748
3.46877
3.65481
3.34627
2.87111
2.33961
1.99047
1.70655
1.41519
1.2273
1.12512
1.03615
0.948593
0.916475
0.922979
0.937248
0.936423
0.937806
0.948405
0.969374
0.984665
0.995732
1.01541
1.13789
1.7857
2.65413
3.27164
3.34512
3.32691
3.34821
3.60228
4.62435
6.14244
7.10788
7.19023
6.94526
6.44899
6.08279
5.83182
5.61776
5.40463
5.19231
4.99302
4.80992
4.63615
4.4677
4.31144
4.16894
4.03561
3.90382
3.76575
3.6228
3.48434
3.3624
3.26311
3.189
3.1234
3.04952
2.96323
2.85731
2.72619
2.60375
2.528
2.47502
2.42824
2.38352
2.33516
2.2851
2.2393
2.20024
2.19519
2.25415
2.51342
2.86268
3.16313
3.35911
3.36558
3.3683
3.42862
3.56818
3.77694
4.06551
4.37786
4.5069
4.52933
4.55428
4.50498
4.38162
4.27119
4.15936
4.02389
3.86121
3.74542
3.68002
3.63804
3.5998
3.55661
3.46791
3.38384
2.76534
2.13679
1.77062
1.51974
1.23876
1.07271
1.05472
1.00784
0.953959
0.924098
0.909834
0.917353
0.928482
0.94712
0.975046
1.00031
1.01889
1.02207
1.028
1.02636
1.03247
1.12046
1.60185
2.55536
3.09228
3.56817
4.25453
5.65543
6.79102
7.47594
7.37037
7.02658
6.68694
6.41886
6.18959
5.96752
5.75506
5.54643
5.32902
5.10368
4.87724
4.6689
4.50752
4.37317
4.24718
4.12358
3.99386
3.8521
3.69627
3.54121
3.41699
3.3288
3.25377
3.17665
3.09447
3.00305
2.89042
2.7596
2.65379
2.59211
2.54613
2.50186
2.45071
2.39393
2.32876
2.26417
2.20162
2.13604
2.0958
2.13307
2.32226
2.63655
3.03794
3.30856
3.63931
4.01777
4.34315
4.48842
4.5502
4.61232
4.58149
4.53652
4.51254
4.4565
4.39129
4.31045
4.21686
4.08791
3.8913
3.72065
3.64928
3.60105
3.55936
3.5492
3.50784
2.66841
1.6938
1.13369
0.868487
0.689397
0.62362
0.635887
0.720104
0.81784
0.851398
0.89907
0.954506
0.981376
0.993424
1.01101
1.04509
1.06898
1.07235
1.07005
1.0699