/*--------------------------------*- C++ -*----------------------------------*\
  =========                 |
  \\      /  F ield         | OpenFOAM: The Open Source CFD Toolbox
   \\    /   O peration     | Website:  https://openfoam.org
    \\  /    A nd           | Version:  7
     \\/     M anipulation  |
\*---------------------------------------------------------------------------*/
FoamFile
{
    version     2.0;
    format      ascii;
    class       volScalarField;
    location    "2";
    object      rho;
}
// * * * * * * * * * * * * * * * * * * * * * * * * * * * * * * * * * * * * * //

dimensions      [1 -3 0 0 0 0 0];

internalField   nonuniform List<scalar> 
4608
(
1.40001
1.40001
1.40001
1.40001
1.40001
1.40001
1.40001
1.40001
1.40001
1.40001
1.40001
1.40001
1.40001
1.40001
1.40001
1.40001
1.40001
1.40001
1.40001
1.40001
1.40001
1.40001
1.40001
1.40001
1.40001
1.40001
1.40001
1.40001
1.40001
1.40001
1.40001
1.40001
1.40001
1.40001
1.40001
1.40001
1.40001
1.40001
1.40001
1.40001
1.40001
1.40001
1.40001
1.40001
1.40001
1.40001
1.40001
1.40001
1.40001
1.40001
1.40001
1.40001
1.40001
1.40001
1.40001
1.40001
1.40001
1.40001
1.40001
1.40001
1.40001
1.40001
1.40001
1.40001
1.40001
1.40001
1.40001
1.40001
1.40001
1.40001
1.40001
1.40001
1.40001
1.40001
1.40001
1.40001
1.40001
1.40001
1.40001
1.40001
1.40001
1.40001
1.40001
1.40001
1.40001
1.40001
1.40001
1.40001
1.40001
1.40001
1.40001
1.40001
1.40001
1.40001
1.40001
1.40001
1.40001
1.40001
1.40001
1.40001
1.40001
1.40001
1.40001
1.40001
1.40001
1.40001
1.40001
1.40001
1.40001
1.40001
1.40001
1.40001
1.40001
1.40001
1.40001
1.40001
1.40001
1.40001
1.40001
1.40001
1.40001
1.40001
1.40001
1.40001
1.40001
1.40001
1.40001
1.40001
1.40001
1.40001
1.40001
1.40001
1.40001
1.40001
1.40001
1.40001
1.40001
1.40001
1.40001
1.40001
1.40001
1.40001
1.40001
1.40001
1.40001
1.40001
1.40001
1.40001
1.40001
1.40001
1.40001
1.40001
1.40001
1.40001
1.40001
1.40001
1.40001
1.40001
1.40001
1.40001
1.40001
1.40001
1.40001
1.40001
1.40001
1.40001
1.40001
1.40001
1.40001
1.40001
1.40001
1.40001
1.40001
1.40001
1.40001
1.40001
1.40001
1.40001
1.40001
1.40001
1.40001
1.40001
1.40001
1.40001
1.40001
1.40001
1.40001
1.40001
1.40001
1.40001
1.40001
1.40001
1.40001
1.40001
1.40001
1.40001
1.40001
1.40001
1.40001
1.40001
1.40001
1.40001
1.40001
1.40001
1.40001
1.40001
1.40001
1.40001
1.40001
1.40001
1.40001
1.40001
1.40001
1.40001
1.40001
1.40001
1.40001
1.40001
1.40001
1.40001
1.40001
1.40001
1.40001
1.40001
1.40001
1.40001
1.40001
1.40001
1.40001
1.40001
1.40001
1.40001
1.40001
1.40001
1.40001
1.40001
1.40001
1.40001
1.40001
1.40001
1.40001
1.40001
1.40001
1.40001
1.40001
1.40001
1.40001
1.40001
1.40001
1.40001
1.40001
1.40001
1.40001
1.40001
1.40001
1.40001
1.40001
1.40001
1.40001
1.40001
1.40001
1.40001
1.40001
1.40001
1.40001
1.40001
1.40001
1.40001
1.40001
1.40001
1.40001
1.40001
1.40001
1.40001
1.40001
1.40001
1.40001
1.40001
1.40001
1.40001
1.40001
1.40001
1.40001
1.40001
1.40001
1.40001
1.40001
1.40001
1.40001
1.40001
1.40001
1.40001
1.40001
1.40001
1.40001
1.40001
1.40001
1.40001
1.40001
1.40001
1.40001
1.40001
1.40001
1.40001
1.40001
1.40001
1.40001
1.40001
1.40001
1.40001
1.40001
1.40001
1.40001
1.40001
1.40001
1.40001
1.40001
1.40001
1.40001
1.40001
1.40001
1.40001
1.40001
1.40001
1.40001
1.40001
1.40001
1.40001
1.40001
1.40001
1.40001
1.40001
1.40001
1.40001
1.40001
1.40001
1.40001
1.40001
1.40001
1.40001
1.40001
1.40001
1.40001
1.40001
1.40001
1.40001
1.40001
1.40001
1.40001
1.40001
1.40001
1.40001
1.40001
1.40001
1.40001
1.40001
1.40001
1.40001
1.40001
1.40001
1.40001
1.40001
1.40001
1.40001
1.40001
1.40001
1.40001
1.40001
1.40001
1.40001
1.40001
1.40001
1.40001
1.40001
1.40001
1.40001
1.40001
1.40001
1.40001
1.40001
1.40001
1.40001
1.40001
1.40001
1.40001
1.40001
1.40001
1.40001
1.40001
1.40001
1.40001
1.40001
1.40001
1.40001
1.40001
1.40001
1.40001
1.40001
1.40001
1.40001
1.40001
1.40001
1.40001
1.40001
1.40001
1.40001
1.40001
1.40001
1.40001
1.40001
1.40001
1.40001
1.40001
1.40001
1.40001
1.40001
1.40001
1.40001
1.40001
1.40001
1.40001
1.40001
1.40001
1.40001
1.40001
1.40001
1.40001
1.40001
1.40001
1.40001
1.40001
1.40001
1.40001
1.40001
1.40001
1.40001
1.40001
1.40001
1.40001
1.40001
1.40001
1.40001
1.40001
1.40001
1.40001
1.40001
1.40001
1.40001
1.40001
1.40001
1.40001
1.40001
1.40001
1.40001
1.40001
1.40001
1.40001
1.40001
1.40001
1.40001
1.40001
1.40001
1.40001
1.40001
1.40001
1.40001
1.40001
1.40001
1.40001
1.40001
1.40001
1.40001
1.40001
1.40001
1.40001
1.40001
1.40001
1.40001
1.40001
1.40001
1.40001
1.40001
1.40001
1.40001
1.40001
1.40001
1.40001
1.40001
1.40001
1.40001
1.40001
1.40001
1.40001
1.40001
1.40001
1.40001
1.40001
1.40001
1.40001
1.40001
1.40001
1.40001
1.40001
1.40001
1.40001
1.40001
1.40001
1.40001
1.40001
1.40001
1.40001
1.40001
1.40001
1.40001
1.40001
1.40001
1.40001
1.40001
1.40001
1.40001
1.40001
1.40001
1.40001
1.40001
1.40001
1.40001
1.40001
1.40001
1.40001
1.40001
1.40001
1.40001
1.40001
1.40001
1.40001
1.40001
1.40001
1.40001
1.40001
1.40001
1.40001
1.40001
1.40001
1.40001
1.40001
1.40001
1.40001
1.40001
1.40001
1.40001
1.40001
1.40001
1.40001
1.40001
1.40001
1.40001
1.40001
1.40001
1.40001
1.40001
1.40001
1.40001
1.40001
1.40001
1.40001
1.40001
1.40001
1.40001
1.40001
1.40001
1.40001
1.40001
1.40001
1.40001
1.40001
1.40001
1.40001
1.40001
1.40001
1.40001
1.40001
1.40001
1.40001
1.40001
1.40001
1.40001
1.40001
1.40001
1.40001
1.40001
1.40001
1.40001
1.40001
1.40001
1.40001
1.40001
1.40001
1.40001
1.40001
1.40001
1.40001
1.40001
1.40001
1.40001
1.40001
1.40001
1.40001
1.40001
1.40001
1.40001
1.40001
1.40001
1.40001
1.40001
1.40001
1.40001
1.40001
1.40001
1.40001
1.40001
1.40001
1.40001
1.40001
1.40001
1.40001
1.40001
1.40001
1.40001
1.40001
1.40001
1.40001
1.40001
1.40001
1.40001
1.40001
1.40001
1.40001
1.40001
1.40001
1.40001
1.40001
1.40001
1.40001
1.40001
1.40001
1.40001
1.40001
1.40001
1.40001
1.40001
1.40001
1.40001
1.40001
1.40001
1.40001
1.40001
1.40001
1.40001
1.40001
1.40001
1.40001
1.40001
1.40001
1.40001
1.40001
1.40001
1.40001
1.40001
1.40001
1.40001
1.40001
1.40001
1.40001
1.40001
1.40001
1.40001
1.40001
1.40001
1.40001
1.40001
1.40001
1.40001
1.40001
1.40001
1.40001
1.40001
1.40001
1.40001
1.40001
1.40001
1.40001
1.40001
1.40001
1.40001
1.40001
1.40001
1.40001
1.40001
1.40001
1.40001
1.40001
1.40001
1.40001
1.40001
1.40001
1.40001
1.40001
1.40001
1.40001
1.40001
1.40001
1.40001
1.40001
1.40001
1.40001
1.40001
1.40001
1.40001
1.40001
1.40001
1.40001
1.40001
1.40001
1.40001
1.40001
1.40001
1.40001
1.40001
1.40001
1.40001
1.40001
1.40001
1.40001
1.40001
1.40001
1.40001
1.40001
1.40001
1.40001
1.40001
1.40001
1.40001
1.40001
1.40001
1.40001
1.40001
1.40001
1.40001
1.40001
1.40001
1.40001
1.40001
1.40001
1.40001
1.40001
1.40001
1.40001
1.40001
1.40001
1.40001
1.40001
1.40001
1.40001
1.40001
1.40001
1.40001
1.40001
1.40001
1.67752
2.09148
2.52373
3.00255
3.42874
3.81557
4.13948
4.41185
4.42854
4.30254
4.03402
3.7216
3.46998
3.36037
3.29784
3.30885
3.33778
3.36492
3.38344
3.39502
3.40273
3.41632
3.43262
3.43507
1.40197
1.41781
1.47934
1.58552
1.80432
2.10592
2.51762
2.95836
3.39084
3.53899
3.64781
3.614
3.56939
3.47731
3.40938
3.40131
3.38465
3.37474
3.3781
3.38243
3.39183
3.40444
3.42072
3.42744
1.4
1.39995
1.40023
1.40016
1.40336
1.42124
1.49675
1.70812
2.18878
2.89399
3.42345
3.71171
3.76568
3.71656
3.60822
3.45151
3.34891
3.34914
3.35431
3.35661
3.36219
3.37055
3.3836
3.40067
1.4
1.4
1.4
1.4
1.39999
1.40004
1.39993
1.40173
1.42746
1.65008
2.16875
2.95969
3.40164
3.58213
3.55069
3.48722
3.39613
3.36946
3.35471
3.32649
3.32294
3.33003
3.3422
3.35947
1.40001
1.40001
1.40001
1.4
1.4
1.4
1.39999
1.4
1.39991
1.40161
1.43319
1.69099
2.294
3.03285
3.458
3.52053
3.48457
3.44306
3.37269
3.31051
3.30167
3.30945
3.32
3.33143
1.40001
1.40001
1.40001
1.40001
1.40001
1.4
1.4
1.4
1.39999
1.4
1.39993
1.40281
1.46866
1.78805
2.50731
3.15231
3.45733
3.45237
3.4146
3.36193
3.3222
3.31764
3.3098
3.30942
1.40001
1.40001
1.40001
1.40001
1.40001
1.40001
1.40001
1.40001
1.40001
1.4
1.4
1.39998
1.40005
1.40761
1.54918
2.01651
2.78177
3.20792
3.40985
3.40562
3.36944
3.31907
3.30335
3.28895
1.40001
1.40001
1.40001
1.40001
1.40001
1.40001
1.40001
1.40001
1.40001
1.40001
1.4
1.4
1.4
1.39998
1.40143
1.42804
1.70399
2.31958
3.09525
3.2972
3.32689
3.30844
3.30359
3.28685
1.40001
1.40001
1.40001
1.40001
1.40001
1.40001
1.40001
1.40001
1.40001
1.40001
1.40001
1.40001
1.4
1.4
1.4
1.39999
1.40864
1.5028
1.99315
2.71854
3.23963
3.3566
3.34795
3.33511
1.40001
1.40001
1.40001
1.40001
1.40001
1.40001
1.40001
1.40001
1.40001
1.40001
1.40001
1.40001
1.40001
1.4
1.4
1.4
1.39999
1.40091
1.44209
1.73163
2.48267
3.00668
3.28527
3.35635
1.40001
1.40001
1.40001
1.40001
1.40001
1.40001
1.40001
1.40001
1.40001
1.40001
1.40001
1.40001
1.40001
1.40001
1.40001
1.4
1.4
1.4
1.40025
1.41339
1.58584
2.19841
2.95589
3.29564
1.40001
1.40001
1.40001
1.40001
1.40001
1.40001
1.40001
1.40001
1.40001
1.40001
1.40001
1.40001
1.40001
1.40001
1.40001
1.40001
1.4
1.4
1.4
1.40003
1.40509
1.51409
2.00382
2.71009
1.40001
1.40001
1.40001
1.40001
1.40001
1.40001
1.40001
1.40001
1.40001
1.40001
1.40001
1.40001
1.40001
1.40001
1.40001
1.40001
1.40001
1.40001
1.4
1.4
1.40001
1.40253
1.45696
1.81816
1.40001
1.40001
1.40001
1.40001
1.40001
1.40001
1.40001
1.40001
1.40001
1.40001
1.40001
1.40001
1.40001
1.40001
1.40001
1.40001
1.40001
1.40001
1.40001
1.4
1.4
1.4
1.40084
1.43019
1.40001
1.40001
1.40001
1.40001
1.40001
1.40001
1.40001
1.40001
1.40001
1.40001
1.40001
1.40001
1.40001
1.40001
1.40001
1.40001
1.40001
1.40001
1.40001
1.40001
1.4
1.4
1.4
1.40014
1.40001
1.40001
1.40001
1.40001
1.40001
1.40001
1.40001
1.40001
1.40001
1.40001
1.40001
1.40001
1.40001
1.40001
1.40001
1.40001
1.40001
1.40001
1.40001
1.40001
1.40001
1.4
1.4
1.4
1.40001
1.40001
1.40001
1.40001
1.40001
1.40001
1.40001
1.40001
1.40001
1.40001
1.40001
1.40001
1.40001
1.40001
1.40001
1.40001
1.40001
1.40001
1.40001
1.40001
1.40001
1.4
1.4
1.4
1.40001
1.40001
1.40001
1.40001
1.40001
1.40001
1.40001
1.40001
1.40001
1.40001
1.40001
1.40001
1.40001
1.40001
1.40001
1.40001
1.40001
1.40001
1.40001
1.40001
1.4
1.4
1.40001
1.4
1.40001
1.40001
1.40001
1.40001
1.40001
1.40001
1.40001
1.40001
1.40001
1.40001
1.40001
1.40001
1.40001
1.40001
1.40001
1.40001
1.40001
1.40001
1.40001
1.4
1.4
1.4
1.401
1.42996
1.40001
1.40001
1.40001
1.40001
1.40001
1.40001
1.40001
1.40001
1.40001
1.40001
1.40001
1.40001
1.40001
1.40001
1.40001
1.40001
1.40001
1.4
1.4
1.4
1.40001
1.40216
1.45816
1.85847
1.40001
1.40001
1.40001
1.40001
1.40001
1.40001
1.40001
1.40001
1.40001
1.40001
1.40001
1.40001
1.40001
1.40001
1.40001
1.40001
1.4
1.4
1.4
1.40002
1.40592
1.50309
2.00886
2.75911
1.40001
1.40001
1.40001
1.40001
1.40001
1.40001
1.40001
1.40001
1.40001
1.40001
1.40001
1.40001
1.40001
1.40001
1.40001
1.4
1.4
1.4
1.40026
1.41279
1.58985
2.17318
3.01062
3.24754
1.40001
1.40001
1.40001
1.40001
1.40001
1.40001
1.40001
1.40001
1.40001
1.40001
1.40001
1.40001
1.40001
1.4
1.4
1.4
1.39999
1.40091
1.44205
1.73424
2.45963
3.01598
3.31141
3.34721
1.40001
1.40001
1.40001
1.40001
1.40001
1.40001
1.40001
1.40001
1.40001
1.40001
1.40001
1.40001
1.4
1.4
1.4
1.39999
1.40864
1.50279
1.99197
2.72502
3.22819
3.35886
3.35205
3.33398
1.40001
1.40001
1.40001
1.40001
1.40001
1.40001
1.40001
1.40001
1.40001
1.40001
1.4
1.4
1.4
1.39998
1.40143
1.42803
1.70412
2.31902
3.09586
3.297
3.32642
3.30863
3.30521
3.28785
1.40001
1.40001
1.40001
1.40001
1.40001
1.40001
1.40001
1.40001
1.40001
1.4
1.4
1.39998
1.40005
1.40761
1.54916
2.01664
2.78153
3.20781
3.41023
3.40572
3.36953
3.31937
3.30422
3.28904
1.40001
1.40001
1.40001
1.40001
1.40001
1.4
1.4
1.4
1.39999
1.4
1.39993
1.40281
1.46866
1.78804
2.50725
3.15244
3.45727
3.45234
3.41466
3.36196
3.32205
3.31769
3.31
3.30925
1.40001
1.40001
1.40001
1.4
1.4
1.4
1.39999
1.4
1.39991
1.40161
1.4332
1.69098
2.29403
3.03276
3.45806
3.52056
3.48459
3.44304
3.37269
3.31055
3.3016
3.30945
3.32009
3.33135
1.4
1.4
1.4
1.4
1.39999
1.40004
1.39993
1.40173
1.42746
1.65008
2.16873
2.95973
3.40161
3.58212
3.5507
3.48724
3.39616
3.36936
3.35477
3.32658
3.32291
3.33001
3.34219
3.35945
1.4
1.39995
1.40023
1.40016
1.40336
1.42124
1.49675
1.70812
2.18878
2.89399
3.42345
3.71172
3.76567
3.71657
3.60822
3.45152
3.3489
3.34909
3.35433
3.35663
3.36217
3.37054
3.38359
3.40067
1.40197
1.41781
1.47934
1.58552
1.80432
2.10592
2.51762
2.95836
3.39084
3.53899
3.64782
3.614
3.56938
3.47733
3.40938
3.4013
3.38464
3.37474
3.37811
3.38243
3.39182
3.40444
3.42072
3.42745
1.67752
2.09148
2.52373
3.00254
3.42875
3.81558
4.13947
4.41185
4.42854
4.30254
4.03402
3.72159
3.46999
3.36037
3.29784
3.30885
3.33778
3.36492
3.38345
3.39502
3.40273
3.41632
3.43263
3.43507
2.67054
1.92543
1.44056
1.17323
0.973384
0.904136
0.916232
0.994678
1.08779
1.12348
1.17192
1.22738
1.25642
1.26907
1.2843
1.3153
1.34141
1.3458
1.34394
1.34381
1.33978
1.33133
1.33264
1.38114
1.6779
2.56151
3.65825
4.80861
5.84968
6.01208
5.68414
5.15441
4.81203
4.6483
4.55355
4.44985
4.32215
4.18669
4.06359
3.94913
3.83864
3.73393
3.63507
3.543
3.46019
3.38673
3.31472
3.23096
3.12374
2.99934
2.90396
2.85704
2.8237
2.78934
2.75162
2.70796
2.65237
2.56908
2.46212
2.38825
2.35159
2.32058
2.29144
2.25865
2.22339
2.18487
2.14703
2.105
2.05566
2.00854
1.9726
1.99086
2.09444
2.3485
2.79526
3.2303
3.52559
3.80685
3.93463
3.90142
3.77819
3.62134
3.52789
3.50057
3.47499
3.44658
3.40504
3.3554
3.26422
3.11491
3.04524
3.02206
3.00151
2.98921
2.98958
2.95345
3.16427
2.73677
2.27995
1.99248
1.78003
1.54427
1.39617
1.36747
1.31569
1.25903
1.22736
1.21173
1.21861
1.22803
1.24423
1.27031
1.29536
1.31417
1.31599
1.31935
1.31783
1.32296
1.39381
1.75775
2.41875
2.77206
3.05915
3.45039
4.22132
4.82161
5.13863
5.09083
4.90895
4.73422
4.59628
4.46168
4.32421
4.21002
4.10397
3.99015
3.87794
3.77381
3.67651
3.58503
3.50083
3.42119
3.3404
3.25261
3.15209
3.04506
2.95311
2.89338
2.85826
2.8243
2.78465
2.73685
2.67695
2.59586
2.49798
2.42509
2.38619
2.35561
2.3233
2.28824
2.2525
2.21323
2.17501
2.13769
2.096
2.06497
2.09083
2.22082
2.42254
2.65891
2.82254
3.0314
3.24793
3.41194
3.50998
3.55599
3.59028
3.58049
3.55151
3.53592
3.50405
3.46567
3.42013
3.36309
3.27279
3.14014
3.05935
3.03234
3.01254
3.00474
3.00367
2.96581
3.33719
3.13565
2.81232
2.43031
2.16506
1.94344
1.70092
1.53161
1.43796
1.35453
1.27117
1.23881
1.24549
1.25867
1.25605
1.25576
1.26511
1.28624
1.30085
1.31013
1.3267
1.43146
1.91426
2.51554
2.915
2.94152
2.92353
2.93085
3.0716
3.64557
4.43453
4.94008
4.97651
4.86073
4.61155
4.42606
4.29166
4.17068
4.0427
3.9135
3.80009
3.70282
3.6136
3.52875
3.44876
3.37323
3.29685
3.21769
3.13591
3.04633
2.94597
2.854
2.79512
2.76201
2.73264
2.69375
2.64147
2.57716
2.50341
2.41435
2.34347
2.31073
2.28242
2.25086
2.21665
2.18464
2.15468
2.13202
2.12878
2.17029
2.34676
2.56684
2.74127
2.86333
2.87475
2.88268
2.92207
2.99341
3.10891
3.26943
3.44065
3.50103
3.52722
3.5463
3.52674
3.48113
3.41713
3.34205
3.25225
3.15045
3.07516
3.03407
3.0122
2.98793
2.96596
2.92827
3.35591
3.28894
3.11719
2.82164
2.51445
2.31193
2.07
1.79321
1.68282
1.62325
1.50343
1.36973
1.34692
1.35046
1.32951
1.28202
1.27325
1.26999
1.2713
1.28045
1.39745
1.92876
2.62232
2.86041
2.94389
2.92215
2.85723
2.78555
2.71304
2.76102
3.09935
3.90626
4.5297
4.61805
4.58659
4.45727
4.31556
4.16956
4.02522
3.8906
3.77593
3.67619
3.58198
3.4969
3.42
3.35274
3.29549
3.23561
3.16297
3.06968
2.95737
2.86088
2.78872
2.73247
2.69796
2.67366
2.64385
2.5954
2.52774
2.43358
2.33886
2.28513
2.26012
2.23781
2.2054
2.18981
2.17652
2.21072
2.32764
2.55267
2.76335
2.85189
2.90858
2.93634
2.91369
2.85433
2.8148
2.77638
2.79274
2.86629
3.04627
3.2361
3.37403
3.44388
3.44407
3.43029
3.40135
3.34222
3.25296
3.16425
3.09927
3.05595
3.0243
2.98708
2.95337
2.91028
3.34097
3.32951
3.2551
3.08746
2.8176
2.57668
2.39112
2.14551
1.86428
1.78164
1.72353
1.61611
1.44417
1.40102
1.38733
1.33709
1.28971
1.27309
1.28979
1.45895
1.99587
2.68399
2.89405
2.88181
2.86177
2.81041
2.74338
2.67451
2.61346
2.52797
2.52958
2.71015
3.33968
4.00624
4.39681
4.44157
4.3726
4.21315
4.02911
3.85889
3.72741
3.6353
3.55792
3.48472
3.40843
3.32536
3.24235
3.16671
3.09708
3.02091
2.93906
2.86361
2.79397
2.73478
2.68594
2.63693
2.58964
2.5428
2.48669
2.42048
2.34996
2.29146
2.24625
2.21986
2.21264
2.22818
2.32802
2.53296
2.78914
2.98116
2.98647
2.96228
2.94624
2.91987
2.88158
2.83634
2.78587
2.74745
2.70449
2.6808
2.72049
2.86579
3.05236
3.23877
3.35031
3.3679
3.35282
3.29858
3.22752
3.16369
3.12094
3.08432
3.05056
3.01059
2.96396
2.8898
3.32291
3.3229
3.30641
3.22476
3.0642
2.82117
2.60682
2.43254
2.21699
1.97753
1.88835
1.81563
1.68176
1.55484
1.49991
1.44369
1.38008
1.39547
1.61195
2.18895
2.80645
2.97901
2.945
2.85724
2.78129
2.71682
2.65452
2.59145
2.52646
2.44873
2.3964
2.36044
2.43915
2.81511
3.49702
4.04933
4.17438
4.14451
4.0258
3.86953
3.72108
3.60093
3.51274
3.44754
3.38829
3.31963
3.23771
3.14527
3.05894
3.00161
2.9549
2.90055
2.83958
2.76814
2.6816
2.60261
2.55076
2.51475
2.48182
2.44072
2.38929
2.31657
2.25093
2.23932
2.27519
2.4512
2.73956
3.01023
3.14113
3.1435
3.09302
3.00759
2.94975
2.90457
2.86159
2.83086
2.80212
2.76253
2.70413
2.66016
2.62652
2.63611
2.70585
2.84744
3.03704
3.16377
3.21726
3.1989
3.18252
3.18038
3.16003
3.12815
3.08579
3.03506
2.97598
2.87876
3.29642
3.30391
3.29798
3.27973
3.19601
3.03489
2.83281
2.64506
2.45798
2.23851
2.09093
2.00278
1.87994
1.71485
1.62857
1.55815
1.58027
1.83683
2.48186
3.02857
3.1401
3.06649
2.93823
2.83296
2.76005
2.69316
2.62499
2.56264
2.49498
2.42144
2.35882
2.31149
2.24337
2.2492
2.43538
2.98362
3.62239
3.97633
3.95776
3.86439
3.71554
3.58424
3.48166
3.41174
3.35449
3.29352
3.21464
3.12337
3.0377
2.96742
2.90795
2.85645
2.80185
2.73237
2.64963
2.57969
2.53103
2.48812
2.44358
2.40108
2.36165
2.31229
2.2948
2.37062
2.61552
2.92711
3.16111
3.22934
3.22215
3.17941
3.09922
3.02363
2.96541
2.91282
2.86019
2.81743
2.77956
2.7417
2.69451
2.64948
2.61767
2.6025
2.58042
2.59956
2.67111
2.80539
2.9752
3.07863
3.1161
3.14538
3.16405
3.14169
3.09324
3.0455
2.99385
2.88639
3.27672
3.27867
3.27839
3.27253
3.24769
3.16198
3.00463
2.8357
2.67618
2.48317
2.25876
2.16877
2.07194
1.928
1.79442
1.86669
2.26169
2.9503
3.41506
3.40648
3.29634
3.13832
2.99506
2.89224
2.806
2.72295
2.63924
2.56952
2.49224
2.41814
2.3519
2.29591
2.22909
2.17053
2.12086
2.18497
2.52296
3.15684
3.6507
3.76118
3.72722
3.61989
3.51228
3.4185
3.32848
3.24549
3.16716
3.08942
3.0155
2.95051
2.8932
2.8371
2.77812
2.71119
2.63246
2.55681
2.50169
2.46554
2.42802
2.41304
2.38381
2.39906
2.53093
2.83896
3.12009
3.28241
3.326
3.31126
3.25962
3.18371
3.10906
3.04426
2.9854
2.92864
2.87049
2.81781
2.77349
2.73578
2.69886
2.66216
2.63244
2.60257
2.57075
2.54139
2.51495
2.53374
2.62309
2.7893
2.93267
3.03129
3.08223
3.09943
3.08708
3.062
3.02009
2.90408
3.30456
3.28673
3.28277
3.27765
3.27226
3.23539
3.14624
2.98824
2.83238
2.67835
2.50519
2.31203
2.19093
2.13031
2.2794
2.82954
3.52573
3.79617
3.73727
3.56407
3.37872
3.22417
3.09996
2.99707
2.89949
2.80024
2.70146
2.61017
2.51436
2.42852
2.36275
2.30219
2.23153
2.15192
2.09449
2.05027
2.05798
2.22392
2.70931
3.28637
3.60545
3.60042
3.55926
3.44478
3.32696
3.22086
3.13444
3.06128
2.99528
2.93398
2.87627
2.81487
2.74917
2.68305
2.60925
2.54624
2.50116
2.47119
2.4525
2.461
2.55101
2.76495
3.08864
3.35995
3.38915
3.37001
3.33374
3.28082
3.22577
3.17004
3.11804
3.07353
3.02191
2.95925
2.88631
2.8148
2.76576
2.72892
2.70115
2.67865
2.6575
2.62993
2.59361
2.54355
2.49837
2.44905
2.45334
2.50794
2.63555
2.78739
2.9211
3.01572
3.0533
3.04648
3.02476
2.92845
3.34339
3.31692
3.30016
3.29792
3.2983
3.28751
3.2401
3.13709
2.99674
2.82251
2.67313
2.47315
2.49008
2.79444
3.48965
4.13728
4.24363
4.13884
3.9322
3.72035
3.52994
3.3674
3.22648
3.09891
2.98051
2.86884
2.7706
2.67753
2.57981
2.48634
2.40664
2.31945
2.22769
2.13789
2.08064
2.03388
2.00138
1.97413
2.03694
2.35586
2.91499
3.33689
3.42974
3.40941
3.33134
3.22635
3.13675
3.05807
2.98411
2.91495
2.85372
2.79409
2.7331
2.67374
2.61291
2.55128
2.52006
2.49699
2.53888
2.74879
3.07727
3.33591
3.55382
3.5739
3.52661
3.40929
3.32197
3.25609
3.20791
3.1696
3.13522
3.10111
3.05516
2.99028
2.90402
2.81732
2.76502
2.73729
2.71502
2.69266
2.66939
2.6439
2.61428
2.56729
2.49931
2.44143
2.42297
2.41489
2.43601
2.5056
2.63197
2.77286
2.88833
2.94504
2.95856
2.92906
3.27028
3.26898
3.28878
3.29593
3.29809
3.30522
3.28269
3.22526
3.11145
2.9828
2.83054
2.93798
3.5297
4.32255
4.68323
4.65671
4.48869
4.28004
4.07465
3.87957
3.697
3.52525
3.36338
3.2105
3.06743
2.93331
2.81488
2.71125
2.62101
2.54256
2.46768
2.37491
2.27395
2.17921
2.09713
2.03308
1.978
1.93615
1.9062
1.92055
2.08747
2.51377
2.99488
3.24083
3.24919
3.22072
3.14344
3.05361
2.96933
2.89792
2.83032
2.76911
2.72608
2.67883
2.63772
2.58564
2.57366
2.6685
2.95342
3.36237
3.57072
3.64136
3.63898
3.60659
3.52116
3.41317
3.32984
3.26368
3.21236
3.17581
3.14933
3.12429
3.08805
3.02473
2.92778
2.83229
2.77903
2.75009
2.72767
2.70603
2.68343
2.65986
2.63267
2.59066
2.51795
2.4477
2.41285
2.39665
2.39093
2.38384
2.40686
2.48012
2.60384
2.72837
2.83762
2.87617
3.17445
3.37006
3.37746
3.34841
3.30233
3.29308
3.29101
3.26914
3.18893
3.19246
3.51978
4.35949
5.11535
5.32846
5.22793
4.94588
4.66502
4.42527
4.21734
4.02555
3.84267
3.66433
3.48852
3.31738
3.15715
3.01312
2.88993
2.78203
2.67987
2.58005
2.48293
2.39254
2.30887
2.22614
2.14241
2.06863
1.999
1.94284
1.88946
1.84929
1.82949
1.8917
2.16577
2.63639
2.95784
3.08939
3.08154
3.0239
2.95493
2.89793
2.83363
2.7679
2.70641
2.68205
2.66362
2.70598
2.90392
3.25181
3.58441
3.80427
3.82343
3.79015
3.69773
3.59612
3.50412
3.42405
3.36166
3.30169
3.24736
3.20453
3.16934
3.13359
3.09242
3.0374
2.95683
2.86393
2.80541
2.7715
2.74625
2.72377
2.70057
2.67494
2.64188
2.59178
2.524
2.45967
2.42182
2.39827
2.37849
2.36398
2.34663
2.33756
2.36244
2.4422
2.56293
2.72182
2.55679
3.21128
3.32137
3.30125
3.29383
3.29027
3.29159
3.31424
3.47919
4.20078
5.32944
5.78006
5.72098
5.58143
5.3517
5.11732
4.85531
4.59047
4.3538
4.14855
3.9629
3.78384
3.60108
3.41438
3.2377
3.08235
2.94556
2.82655
2.72868
2.64335
2.55153
2.44711
2.33987
2.2304
2.14505
2.09033
2.0374
1.97737
1.91544
1.85029
1.80482
1.77111
1.78195
1.91288
2.25923
2.65793
2.90394
2.96738
2.96179
2.90702
2.8347
2.77888
2.73044
2.7576
2.90151
3.23155
3.57933
3.78842
3.86726
3.87872
3.85572
3.81843
3.7381
3.61463
3.50453
3.44079
3.39486
3.34281
3.28895
3.2373
3.18767
3.14073
3.09666
3.04849
2.97947
2.8973
2.83684
2.79527
2.76298
2.73591
2.71001
2.68153
2.6466
2.59942
2.53874
2.47647
2.43294
2.40648
2.38387
2.36467
2.3366
2.31241
2.28621
2.28901
2.3145
2.46441
1.70895
2.46618
2.97486
3.27803
3.31816
3.33453
3.46588
3.90876
4.87131
6.01167
6.54519
6.46021
6.06573
5.68686
5.43632
5.22216
4.98857
4.72631
4.46878
4.24731
4.0554
3.86732
3.67518
3.4841
3.30305
3.14769
3.01732
2.88935
2.76105
2.64909
2.5702
2.49698
2.4043
2.30111
2.19984
2.10224
2.01401
1.94317
1.89336
1.83882
1.79625
1.74828
1.71897
1.70055
1.75121
1.95654
2.36701
2.65846
2.84832
2.86141
2.83627
2.87271
3.03221
3.27087
3.62449
3.91791
4.08127
4.07589
4.01053
3.89969
3.82253
3.78303
3.72395
3.62615
3.52111
3.44868
3.40687
3.36647
3.32288
3.27254
3.21511
3.15546
3.09466
3.02959
2.96029
2.90069
2.85493
2.81543
2.78001
2.74817
2.71857
2.6866
2.64699
2.60216
2.55288
2.50496
2.46893
2.43729
2.40584
2.37533
2.34269
2.30991
2.28537
2.2555
2.21211
2.24822
1.42118
1.64837
2.21697
2.9658
3.20094
3.53357
4.58081
5.52961
6.32145
6.66739
6.65013
6.53595
6.26173
5.88067
5.56193
5.2929
5.05015
4.80919
4.5628
4.32465
4.11191
3.91466
3.71188
3.52122
3.3559
3.21762
3.09004
2.95091
2.81096
2.69569
2.59312
2.48755
2.37995
2.30309
2.23263
2.13821
2.04133
1.96162
1.90488
1.85219
1.80242
1.75572
1.70846
1.66302
1.6181
1.61718
1.73817
2.06641
2.50335
2.7382
2.8939
3.34095
3.77452
4.00964
4.16748
4.1736
4.15313
4.09376
4.02031
3.93506
3.83928
3.76343
3.70036
3.64
3.57925
3.50219
3.43635
3.38632
3.34075
3.29177
3.23513
3.17374
3.10811
3.03764
2.9756
2.92979
2.88906
2.8515
2.81662
2.78161
2.7448
2.70367
2.65747
2.61251
2.57141
2.52211
2.46232
2.41834
2.38765
2.36024
2.33642
2.31522
2.2954
2.26326
2.19417
2.14627
1.40039
1.41748
1.54136
2.20506
3.34993
4.49093
5.86967
6.47874
7.01973
6.94385
6.69732
6.50379
6.31314
6.01821
5.67136
5.32996
5.03692
4.81888
4.65252
4.46808
4.23393
3.98925
3.75009
3.54055
3.36812
3.20578
3.06366
2.98437
2.90578
2.79398
2.65753
2.52872
2.4237
2.33472
2.23934
2.12406
2.03799
2.00384
1.96352
1.91629
1.85534
1.79055
1.72271
1.66207
1.60686
1.55672
1.55229
1.62862
1.9602
2.64146
3.241
3.95531
4.3181
4.45846
4.43414
4.34479
4.17765
4.04722
3.99114
3.95121
3.8833
3.78023
3.6842
3.60671
3.54179
3.48374
3.42461
3.37257
3.3276
3.28801
3.24762
3.19275
3.11451
3.02889
2.95513
2.90572
2.86923
2.83314
2.79656
2.75989
2.72091
2.68798
2.66657
2.64361
2.60719
2.54738
2.46672
2.4129
2.38523
2.36561
2.34836
2.32855
2.30259
2.263
2.1866
2.12717
1.40046
1.40907
1.59415
2.12646
3.30907
4.8163
5.70804
6.48345
7.02605
6.83462
6.55624
6.45097
6.33421
6.10913
5.76428
5.41256
5.11087
4.86811
4.63544
4.40219
4.16105
3.93619
3.7759
3.6187
3.44368
3.27334
3.12086
2.97771
2.84381
2.72323
2.5937
2.483
2.43676
2.3823
2.29068
2.17624
2.06006
1.96411
1.89935
1.85622
1.81172
1.75489
1.69873
1.66762
1.63156
1.58079
1.56137
1.63391
1.90375
2.52499
3.37698
3.94549
4.22977
4.47572
4.44372
4.25651
4.12466
4.0545
4.00297
3.96693
3.90398
3.80803
3.71202
3.61069
3.51844
3.47508
3.43898
3.39807
3.35799
3.32223
3.28298
3.21931
3.12715
3.02889
2.95193
2.90148
2.86631
2.83253
2.79531
2.75798
2.7229
2.69445
2.66605
2.63071
2.58756
2.53073
2.47059
2.43341
2.41381
2.39565
2.3764
2.35355
2.32174
2.26928
2.18605
2.12515
1.42575
1.59357
2.26674
2.84879
3.17661
3.88314
4.47819
5.54158
6.29235
6.5085
6.52532
6.48897
6.2805
5.94942
5.63318
5.35387
5.09356
4.83994
4.5868
4.35221
4.14115
3.93066
3.70847
3.50339
3.32987
3.17936
3.04661
2.92462
2.81465
2.70375
2.59568
2.50343
2.40689
2.30363
2.21492
2.13371
2.05023
1.96902
1.89795
1.84113
1.79825
1.76377
1.71382
1.66584
1.62374
1.63277
1.75644
2.09491
2.49667
2.67015
3.00022
3.32503
3.65419
4.05373
4.10723
4.10528
4.11727
4.10582
4.04624
3.98185
3.8958
3.80272
3.70472
3.60923
3.5299
3.45756
3.39889
3.35609
3.31955
3.28403
3.24719
3.20688
3.14588
3.0554
2.94872
2.87622
2.84879
2.82785
2.80601
2.77854
2.75
2.71854
2.68418
2.6459
2.59547
2.52485
2.45427
2.41544
2.39083
2.36737
2.34373
2.31951
2.29413
2.25536
2.19049
2.15243
1.73182
2.35498
3.05493
3.23745
3.33228
3.39745
3.46437
3.84251
4.84933
5.96621
6.48072
6.45229
6.13756
5.76512
5.49495
5.25466
4.99973
4.72808
4.46591
4.23255
4.02679
3.83047
3.63362
3.45171
3.29525
3.16394
3.04121
2.91577
2.78696
2.66052
2.54879
2.45725
2.36756
2.27285
2.18693
2.1318
2.07868
2.01478
1.94367
1.86798
1.79813
1.73714
1.71237
1.6867
1.73229
1.97245
2.35965
2.7184
2.86731
2.85404
2.85214
2.85968
2.94529
3.229
3.63241
3.91983
4.0801
4.11034
4.0524
3.94587
3.84923
3.78484
3.70745
3.61048
3.51524
3.43744
3.38554
3.34906
3.3145
3.27597
3.23092
3.17666
3.11001
3.03059
2.94059
2.87691
2.84218
2.81024
2.77573
2.74644
2.71925
2.68918
2.65448
2.61441
2.56657
2.50664
2.4508
2.415
2.38716
2.36298
2.33702
2.31284
2.29042
2.25853
2.21293
2.25075
2.57292
3.1235
3.31767
3.32576
3.33643
3.34189
3.31385
3.30732
3.46234
4.22064
5.35237
5.8209
5.79805
5.6463
5.40375
5.11376
4.82198
4.55439
4.31801
4.10854
3.91951
3.74477
3.58091
3.42059
3.26125
3.1108
2.97261
2.84491
2.73188
2.63593
2.54104
2.43355
2.32136
2.2326
2.16495
2.08789
2.01044
1.95412
1.90678
1.85607
1.80595
1.75196
1.76078
1.88668
2.25428
2.66425
2.9129
2.99072
2.97494
2.91597
2.83303
2.77749
2.72218
2.74564
2.91986
3.25887
3.60278
3.84861
3.90193
3.88713
3.84727
3.78414
3.69484
3.5893
3.49706
3.42911
3.38444
3.34353
3.30151
3.25575
3.20466
3.14969
3.09068
3.02442
2.94815
2.87436
2.8271
2.79412
2.76411
2.73798
2.71295
2.68597
2.65352
2.60519
2.53881
2.49011
2.45855
2.42738
2.39651
2.36963
2.34057
2.31911
2.29282
2.29373
2.3191
2.46849
3.15754
3.35158
3.36765
3.35931
3.3367
3.31751
3.28042
3.25198
3.18243
3.19272
3.53577
4.37422
5.13937
5.3652
5.2515
4.93147
4.6298
4.38825
4.18298
3.99427
3.81717
3.65066
3.49377
3.34184
3.19375
3.05322
2.92416
2.80281
2.68973
2.58279
2.47803
2.37739
2.29086
2.21106
2.13408
2.06572
1.99866
1.94162
1.89415
1.85701
1.83705
1.89338
2.15833
2.60426
2.97992
3.08912
3.08476
3.03863
2.96739
2.90163
2.83384
2.76344
2.69852
2.66861
2.64988
2.70225
2.90786
3.2737
3.6123
3.80789
3.80882
3.75883
3.66217
3.5768
3.50145
3.43123
3.37233
3.3162
3.26598
3.21984
3.1728
3.1248
3.07416
3.01392
2.93842
2.86101
2.81052
2.78099
2.75519
2.73241
2.70919
2.68253
2.64746
2.59004
2.51158
2.45217
2.42129
2.39916
2.38267
2.36856
2.35635
2.34584
2.36627
2.4421
2.55863
2.72013
3.24427
3.26408
3.28259
3.30587
3.3118
3.30345
3.28003
3.21877
3.10685
2.98355
2.83026
2.93022
3.49903
4.30487
4.66733
4.62948
4.45583
4.24932
4.05118
3.86722
3.69826
3.54068
3.39299
3.25055
3.10833
2.96743
2.83791
2.71787
2.61301
2.52076
2.43666
2.34738
2.2597
2.17214
2.09468
2.03887
1.98949
1.94761
1.92006
1.93164
2.08006
2.51298
2.99069
3.22839
3.24639
3.22018
3.14249
3.06092
2.98155
2.90816
2.8392
2.7698
2.7085
2.65262
2.61532
2.57359
2.57551
2.67411
2.96449
3.3319
3.53567
3.62141
3.62604
3.59859
3.52469
3.43308
3.35071
3.28134
3.22827
3.18668
3.14342
3.09893
3.05343
2.99942
2.92861
2.85101
2.7931
2.7634
2.74288
2.72226
2.69951
2.66994
2.62671
2.55954
2.48378
2.43388
2.41374
2.40046
2.39715
2.39392
2.42075
2.48372
2.59317
2.71772
2.82392
2.86725
3.33788
3.31517
3.30814
3.30581
3.3006
3.27994
3.22705
3.12843
2.99364
2.82441
2.67239
2.47065
2.48137
2.77283
3.46856
4.11052
4.23513
4.1278
3.92451
3.72434
3.54896
3.39596
3.25978
3.13317
3.00729
2.88195
2.76626
2.65487
2.55201
2.4582
2.37795
2.29861
2.22321
2.14455
2.08848
2.04449
2.01732
1.99193
2.05105
2.36859
2.91126
3.35258
3.42294
3.38412
3.2924
3.20274
3.12733
3.0614
2.99809
2.93178
2.86366
2.79026
2.72249
2.6586
2.60402
2.55223
2.53228
2.50988
2.54771
2.73673
3.04602
3.33318
3.54424
3.56327
3.53244
3.43425
3.34139
3.27097
3.21539
3.17175
3.1261
3.07945
3.03202
2.97852
2.91319
2.84436
2.7892
2.75235
2.72887
2.70551
2.67731
2.6397
2.59034
2.52957
2.47362
2.44016
2.43167
2.42767
2.4534
2.51664
2.63702
2.76228