/*--------------------------------*- C++ -*----------------------------------*\
  =========                 |
  \\      /  F ield         | OpenFOAM: The Open Source CFD Toolbox
   \\    /   O peration     | Website:  https://openfoam.org
    \\  /    A nd           | Version:  7
     \\/     M anipulation  |
\*---------------------------------------------------------------------------*/
FoamFile
{
    version     2.0;
    format      ascii;
    class       volScalarField;
    location    "2";
    object      T;
}
// * * * * * * * * * * * * * * * * * * * * * * * * * * * * * * * * * * * * * //

dimensions      [0 0 0 1 0 0 0];

internalField   nonuniform List<scalar> 
4608
(
1
1
1
1
1
1
1
1
1
1
1
1
1
1
1
1
1
1
1
1
1
1
1
1
1
1
1
1
1
1
1
1
1
1
1
1
1
1
1
1
1
1
1
1
1
1
1
1
1
1
1
1
1
1
1
1
1
1
1
1
1
1
1
1
1
1
1
1
1
1
1
1
1
1
1
1
1
1
1
1
1
1
1
1
1
1
1
1
1
1
1
1
1
1
1
1
1
1
1
1
1
1
1
1
1
1
1
1
1
1
1
1
1
1
1
1
1
1
1
1
1
1
1
1
1
1
1
1
1
1
1
1
1
1
1
1
1
1
1
1
1
1
1
1
1
1
1
1
1
1
1
1
1
1
1
1
1
1
1
1
1
1
1
1
1
1
1
1
1
1
1
1
1
1
1
1
1
1
1
1
1
1
1
1
1
1
1
1
1
1
1
1
1
1
1
1
1
1
1
1
1
1
1
1
1
1
1
1
1
1
1
1
1
1
1
1
1
1
1
1
1
1
1
1
1
1
1
1
1
1
1
1
1
1
1
1
1
1
1
1
1
1
1
1
1
1
1
1
1
1
1
1
1
1
1
1
1
1
1
1
1
1
1
1
1
1
1
1
1
1
1
1
1
1
1
1
1
1
1
1
1
1
1
1
1
1
1
1
1
1
1
1
1
1
1
1
1
1
1
1
1
1
1
1
1
1
1
1
1
1
1
1
1
1
1
1
1
1
1
1
1
1
1
1
1
1
1
1
1
1
1
1
1
1
1
1
1
1
1
1
1
1
1
1
1
1
1
1
1
1
1
1
1
1
1
1
1
1
1
1
1
1
1
1
1
1
1
1
1
1
1
1
1
1
1
1
1
1
1
1
1
1
1
1
1
1
1
1
1
1
1
1
1
1
1
1
1
1
1
1
1
1
1
1
1
1
1
1
1
1
1
1
1
1
1
1
1
1
1
1
1
1
1
1
1
1
1
1
1
1
1
1
1
1
1
1
1
1
1
1
1
1
1
1
1
1
1
1
1
1
1
1
1
1
1
1
1
1
1
1
1
1
1
1
1
1
1
1
1
1
1
1
1
1
1
1
1
1
1
1
1
1
1
1
1
1
1
1
1
1
1
1
1
1
1
1
1
1
1
1
1
1
1
1
1
1
1
1
1
1
1
1
1
1
1
1
1
1
1
1
1
1
1
1
1
1
1
1
1
1
1
1
1
1
1
1
1
1
1
1
1
1
1
1
1
1
1
1
1
1
1
1
1
1
1
1
1
1
1
1
1
1
1
1
1
1
1
1
1
1
1
1
1
1
1
1
1
1
1
1
1
1
1
1
1
1
1
1
1
1
1
1
1
1
1
1
1
1
1
1
1
1
1
1
1
1
1
1
1
1
1
1
1
1
1
1
1
1
1
1
1
1
1
1
1
1
1
1
1
1
1
1
1
1
1
1
1
1
1
1
1
1
1
1
1
1
1
1
1
1
1
1
1
1
1
1
1
1
1
1
1
1
1
1
1
1
1
1
1
1
1
1
1
1
1
1
1
1
1
1
1
1
1
1
1
1
1
1
1
1
1
1
1
1
1
1
1
1
1
1
1
1
1
1
1
1
1
1
1
1
1
1
1
1
1
1
1
1
1
1
1
1
1
1
1
1
1
1
1
1
1
1
1
1
1
1
1
1
1
1
1
1
1
1
1
1
1
1
1
1
1
1
1
1
1
1
1
1
1
1
1
1
1
1
1
1
1
1
1.07856
1.18298
1.28464
1.39201
1.48747
1.56995
1.63998
1.68358
1.69814
1.68184
1.63776
1.58644
1.54283
1.52444
1.51346
1.51521
1.5199
1.52471
1.52898
1.53218
1.53437
1.5374
1.54019
1.54064
1.00067
1.00645
1.03049
1.07069
1.14711
1.23109
1.32399
1.40478
1.48488
1.518
1.54719
1.5655
1.5636
1.55238
1.54056
1.53761
1.53367
1.53203
1.53331
1.53481
1.53692
1.53939
1.54142
1.54248
1
0.999982
1.00008
1.00006
1.00128
1.00807
1.03732
1.11612
1.26826
1.45153
1.56581
1.62338
1.62271
1.61162
1.59049
1.56071
1.54097
1.54205
1.54375
1.54409
1.54437
1.5449
1.54542
1.54696
1
0.999999
1
1
0.999996
1.00001
0.999971
1.00067
1.01173
1.11409
1.30617
1.50235
1.60223
1.61193
1.60237
1.5885
1.57135
1.56846
1.56647
1.56126
1.55617
1.55509
1.55472
1.55535
1
1
1
1
1
1
0.999997
0.999998
0.999962
1.00063
1.01488
1.12907
1.345
1.53917
1.61976
1.62018
1.61259
1.60483
1.59133
1.57855
1.57256
1.56944
1.56759
1.56886
1
1
1
1
1
1
1
1
0.999997
0.999997
0.999962
1.00109
1.02984
1.16956
1.40534
1.56012
1.61997
1.61779
1.60841
1.5973
1.58876
1.58458
1.57929
1.57937
1
1
1
1
1
1
1
1
1
1
0.999996
0.999997
1
1.00301
1.06507
1.24608
1.46731
1.56456
1.60668
1.60611
1.60004
1.59005
1.58588
1.58221
1
1
1
1
1
1
1
1
1
1
1
1
0.999999
0.999989
1.00047
1.01124
1.12768
1.33378
1.53207
1.57604
1.58803
1.58525
1.58466
1.58142
1
1
1
1
1
1
1
1
1
1
1
1
1
0.999998
0.999998
0.999988
1.0031
1.04171
1.226
1.43366
1.55852
1.58858
1.58784
1.58616
1
1
1
1
1
1
1
1
1
1
1
1
1
1
1
0.999999
0.999991
1.00029
1.01574
1.1324
1.36292
1.50044
1.5622
1.5826
1
1
1
1
1
1
1
1
1
1
1
1
1
1
1
1
0.999999
0.999998
1.00007
1.0048
1.07184
1.28243
1.47794
1.55568
1
1
1
1
1
1
1
1
1
1
1
1
1
1
1
1
1
1
0.999999
1
1.00172
1.04359
1.21594
1.40902
1
1
1
1
1
1
1
1
1
1
1
1
1
1
1
1
1
1
1
1
0.999999
1.00081
1.02085
1.15037
1
1
1
1
1
1
1
1
1
1
1
1
1
1
1
1
1
1
1
1
1
0.999999
1.00025
1.01031
1
1
1
1
1
1
1
1
1
1
1
1
1
1
1
1
1
1
1
1
1
1
0.999999
1.00003
1
1
1
1
1
1
1
1
1
1
1
1
1
1
1
1
1
1
1
1
1
1
1
0.999999
1
1
1
1
1
1
1
1
1
1
1
1
1
1
1
1
1
1
1
1
1
1
1
0.999998
1
1
1
1
1
1
1
1
1
1
1
1
1
1
1
1
1
1
1
1
1
1
1
0.999988
1
1
1
1
1
1
1
1
1
1
1
1
1
1
1
1
1
1
1
1
1
0.999999
1.0003
1.01053
1
1
1
1
1
1
1
1
1
1
1
1
1
1
1
1
1
1
1
1
0.999999
1.00068
1.02149
1.16476
1
1
1
1
1
1
1
1
1
1
1
1
1
1
1
1
1
1
0.999999
1
1.00197
1.03916
1.22081
1.42345
1
1
1
1
1
1
1
1
1
1
1
1
1
1
1
1
0.999999
0.999998
1.00007
1.00462
1.0729
1.27496
1.49251
1.54567
1
1
1
1
1
1
1
1
1
1
1
1
1
1
1
0.999999
0.999991
1.00029
1.01574
1.13305
1.35718
1.50266
1.56825
1.58115
1
1
1
1
1
1
1
1
1
1
1
1
1
0.999998
0.999998
0.999988
1.0031
1.04169
1.22578
1.43519
1.55607
1.58897
1.58861
1.5861
1
1
1
1
1
1
1
1
1
1
1
1
0.999999
0.999989
1.00047
1.01124
1.12773
1.33361
1.53227
1.57604
1.5878
1.58526
1.58495
1.58158
1
1
1
1
1
1
1
1
1
1
0.999996
0.999998
1
1.00301
1.06506
1.24611
1.46724
1.56455
1.60676
1.60613
1.60004
1.59009
1.58604
1.58225
1
1
1
1
1
1
1
1
0.999997
0.999997
0.999962
1.00109
1.02984
1.16955
1.40532
1.56015
1.61995
1.61777
1.60842
1.59731
1.58873
1.58459
1.57931
1.57935
1
1
1
1
1
1
0.999997
0.999998
0.999962
1.00063
1.01488
1.12907
1.34501
1.53914
1.61978
1.62019
1.61259
1.60482
1.59133
1.57856
1.57255
1.56945
1.5676
1.56884
1
0.999999
1
1
0.999996
1.00001
0.999971
1.00067
1.01173
1.11409
1.30617
1.50236
1.60222
1.61193
1.60237
1.5885
1.57136
1.56844
1.56647
1.56127
1.55617
1.55509
1.55472
1.55534
1
0.999982
1.00008
1.00006
1.00128
1.00807
1.03732
1.11612
1.26826
1.45153
1.56581
1.62338
1.62271
1.61163
1.59049
1.56071
1.54097
1.54204
1.54375
1.54409
1.54436
1.5449
1.54542
1.54696
1.00067
1.00645
1.03049
1.07069
1.14711
1.23109
1.32399
1.40478
1.48488
1.518
1.54719
1.5655
1.5636
1.55238
1.54056
1.53761
1.53366
1.53203
1.53331
1.53481
1.53692
1.53939
1.54142
1.54248
1.07856
1.18298
1.28464
1.39201
1.48747
1.56995
1.63998
1.68358
1.69814
1.68184
1.63776
1.58644
1.54283
1.52445
1.51346
1.51521
1.5199
1.52472
1.52898
1.53218
1.53437
1.5374
1.54019
1.54064
1.39889
1.23157
1.10177
1.03637
0.991569
0.965645
0.971626
1.01351
1.05256
1.06093
1.07401
1.08874
1.09354
1.09593
1.10209
1.11237
1.11567
1.11557
1.11469
1.11457
1.11285
1.1066
1.10651
1.12529
1.24564
1.51733
1.76169
1.97951
2.13865
2.18527
2.13837
2.05585
1.99824
1.97035
1.95406
1.9369
1.91531
1.89139
1.86873
1.84734
1.82667
1.80701
1.7884
1.77097
1.75483
1.73974
1.72426
1.70603
1.68282
1.65614
1.63589
1.62633
1.6197
1.6125
1.60389
1.59319
1.57915
1.5583
1.53178
1.51323
1.5039
1.49612
1.48896
1.48089
1.47205
1.46217
1.45224
1.44078
1.42711
1.41279
1.40276
1.4087
1.4405
1.51327
1.62863
1.72527
1.78547
1.84012
1.86694
1.86138
1.83844
1.80886
1.78978
1.7825
1.77665
1.77096
1.76285
1.75271
1.73238
1.69925
1.68532
1.68173
1.67826
1.67615
1.67647
1.66819
1.49715
1.41462
1.31209
1.2441
1.19528
1.12306
1.07564
1.0798
1.07241
1.06075
1.05407
1.0512
1.05391
1.05851
1.0657
1.07459
1.08107
1.08548
1.08738
1.09085
1.0903
1.09247
1.1207
1.26441
1.4711
1.5598
1.62974
1.71919
1.86864
1.97275
2.03772
2.03435
2.01085
1.98516
1.96281
1.94046
1.91706
1.89682
1.87676
1.85522
1.83429
1.81491
1.79681
1.77975
1.76369
1.74778
1.73096
1.71204
1.69018
1.66714
1.64765
1.63514
1.62798
1.62091
1.61203
1.60066
1.58595
1.56565
1.54131
1.52313
1.51311
1.50532
1.49719
1.4885
1.4797
1.47001
1.46025
1.45024
1.43852
1.42937
1.43694
1.47443
1.53026
1.59248
1.63294
1.6807
1.72928
1.76389
1.78279
1.7915
1.79989
1.80059
1.79477
1.79117
1.78443
1.77696
1.76792
1.75612
1.73584
1.70602
1.68929
1.68482
1.68148
1.6802
1.67993
1.67095
1.53325
1.49404
1.42927
1.34776
1.2871
1.22936
1.16483
1.12183
1.09542
1.07092
1.0447
1.03573
1.03747
1.04249
1.04378
1.0455
1.04941
1.05515
1.05992
1.06434
1.07199
1.11369
1.29455
1.47274
1.57671
1.59034
1.58657
1.5892
1.62683
1.76572
1.92759
2.01782
2.02958
2.01104
1.97021
1.93766
1.91355
1.89138
1.86766
1.84338
1.82211
1.80396
1.78709
1.7707
1.75488
1.73963
1.72383
1.70692
1.68917
1.66942
1.64697
1.62691
1.61434
1.60718
1.60058
1.59147
1.57877
1.56257
1.54372
1.52097
1.50302
1.49467
1.4875
1.47969
1.47146
1.46325
1.45533
1.44879
1.44813
1.46075
1.51097
1.56908
1.61386
1.64506
1.64798
1.64998
1.65923
1.67589
1.70277
1.73865
1.77615
1.79093
1.79544
1.79801
1.7936
1.78385
1.77055
1.75491
1.73522
1.71224
1.69564
1.68718
1.68295
1.6783
1.67366
1.66424
1.55112
1.53435
1.49797
1.43675
1.3707
1.32406
1.26591
1.19587
1.16342
1.14431
1.10916
1.06989
1.06181
1.06252
1.05656
1.04516
1.04414
1.04289
1.04304
1.04678
1.09613
1.29418
1.49737
1.56145
1.58705
1.58392
1.57225
1.55862
1.54468
1.55948
1.6541
1.84119
1.96677
1.97758
1.97222
1.94994
1.92433
1.89642
1.86954
1.84515
1.82382
1.80472
1.78602
1.76848
1.75214
1.73787
1.72551
1.71273
1.69736
1.67723
1.65203
1.63042
1.61442
1.60174
1.59394
1.58822
1.58071
1.56847
1.55135
1.52724
1.50334
1.49009
1.48448
1.47945
1.47129
1.46645
1.46237
1.47225
1.50588
1.56507
1.6172
1.64064
1.65709
1.66538
1.6604
1.6478
1.63845
1.62936
1.63346
1.65221
1.69575
1.73971
1.77177
1.78287
1.78171
1.77757
1.77096
1.75819
1.73975
1.72065
1.70566
1.69562
1.68869
1.68118
1.67438
1.66422
1.56434
1.558
1.53943
1.50302
1.44559
1.39215
1.34973
1.29327
1.21941
1.19205
1.17449
1.14762
1.10159
1.08471
1.07765
1.06076
1.04992
1.0466
1.05348
1.12558
1.31928
1.51814
1.57227
1.57636
1.5745
1.56478
1.55129
1.53719
1.52399
1.50375
1.50461
1.55873
1.72604
1.87237
1.95082
1.95691
1.9433
1.91139
1.87565
1.84392
1.81911
1.80113
1.78541
1.7698
1.75312
1.73516
1.71706
1.70086
1.68609
1.66991
1.65206
1.63455
1.61812
1.60453
1.59316
1.58135
1.56943
1.55743
1.54321
1.52635
1.50835
1.49385
1.48316
1.47723
1.47414
1.47832
1.50615
1.56302
1.62828
1.67073
1.67411
1.67196
1.67027
1.66545
1.65682
1.6466
1.6352
1.62599
1.61429
1.61009
1.62059
1.6572
1.70271
1.74473
1.76828
1.76974
1.76625
1.75405
1.73871
1.72486
1.71487
1.70628
1.69863
1.6898
1.67944
1.66314
1.57713
1.57389
1.56672
1.54649
1.51057
1.4574
1.40887
1.3673
1.31542
1.2528
1.22767
1.20763
1.17278
1.13737
1.11943
1.10048
1.0839
1.09307
1.18414
1.38368
1.54779
1.59859
1.59307
1.57678
1.56136
1.54718
1.53324
1.51877
1.50319
1.48347
1.46898
1.45919
1.48341
1.59493
1.76721
1.89102
1.90737
1.90086
1.87823
1.84839
1.82011
1.79688
1.77938
1.76581
1.75275
1.73773
1.72025
1.70053
1.68185
1.6693
1.65901
1.64638
1.63191
1.61516
1.59478
1.5757
1.56264
1.55312
1.54416
1.53384
1.52109
1.50268
1.4859
1.48299
1.49321
1.54155
1.61671
1.68327
1.71307
1.71375
1.70396
1.68708
1.67507
1.66493
1.65486
1.64736
1.64064
1.63127
1.61703
1.60637
1.59803
1.60067
1.61862
1.65451
1.70041
1.7281
1.7401
1.73609
1.73127
1.73038
1.72582
1.71874
1.70916
1.69773
1.6843
1.6624
1.58256
1.58203
1.57957
1.57315
1.55238
1.51554
1.46993
1.42616
1.38075
1.32598
1.28845
1.26587
1.23366
1.18934
1.16395
1.14416
1.15699
1.26622
1.48041
1.61474
1.63904
1.624
1.59764
1.57463
1.55776
1.54188
1.52529
1.50957
1.49198
1.47258
1.45576
1.44285
1.42338
1.42517
1.4849
1.6442
1.79234
1.86676
1.86345
1.84688
1.8196
1.79378
1.77329
1.75922
1.74738
1.73405
1.7171
1.69748
1.67879
1.66288
1.64899
1.63699
1.62441
1.60854
1.58937
1.57223
1.55963
1.54803
1.53591
1.52477
1.51518
1.50311
1.49922
1.52097
1.58728
1.66564
1.72033
1.73572
1.73435
1.72557
1.70943
1.69362
1.68042
1.66788
1.65518
1.64449
1.63514
1.62599
1.61496
1.60418
1.59618
1.59145
1.58523
1.59058
1.60966
1.64352
1.68398
1.70769
1.71635
1.72307
1.72723
1.72226
1.7114
1.7001
1.68817
1.66423
1.58091
1.58104
1.5799
1.57786
1.57174
1.55233
1.51701
1.47801
1.4402
1.39455
1.33975
1.31662
1.29142
1.25523
1.22222
1.25263
1.39212
1.58237
1.69463
1.69347
1.67205
1.63972
1.60924
1.58573
1.56495
1.54428
1.52315
1.50537
1.48525
1.4663
1.44966
1.4342
1.41495
1.3971
1.38173
1.40304
1.50956
1.67783
1.78977
1.82153
1.8163
1.79654
1.77463
1.75583
1.7385
1.72173
1.70538
1.68887
1.67262
1.65794
1.64512
1.6328
1.6198
1.60456
1.58578
1.56684
1.55241
1.54275
1.53325
1.52935
1.52268
1.52823
1.56641
1.64719
1.712
1.75015
1.75803
1.75493
1.74405
1.72768
1.71166
1.6982
1.68491
1.67074
1.65599
1.64279
1.63168
1.62222
1.61322
1.60408
1.59673
1.58934
1.58104
1.57259
1.56566
1.57068
1.59375
1.63499
1.66952
1.69392
1.70621
1.70991
1.70713
1.70104
1.69088
1.66558
1.58242
1.58022
1.57974
1.57893
1.57795
1.57054
1.55175
1.51754
1.48245
1.44723
1.40769
1.36274
1.32991
1.3193
1.37375
1.54571
1.7131
1.76751
1.75584
1.72211
1.68515
1.65317
1.62597
1.60207
1.57869
1.55459
1.53024
1.50678
1.48219
1.46086
1.44472
1.42806
1.40821
1.38615
1.36928
1.35422
1.35656
1.41185
1.55595
1.70616
1.7744
1.78134
1.7741
1.75231
1.72922
1.70835
1.69151
1.67707
1.66346
1.65052
1.63836
1.62551
1.61146
1.59633
1.57828
1.56218
1.55021
1.54324
1.53892
1.54199
1.56939
1.6281
1.70814
1.76906
1.76973
1.76549
1.75818
1.74719
1.73513
1.72252
1.71063
1.70047
1.6884
1.67316
1.65508
1.63723
1.62504
1.61599
1.60895
1.60314
1.5976
1.59054
1.58128
1.56823
1.55609
1.5426
1.54349
1.55765
1.59045
1.62861
1.6613
1.68392
1.69202
1.69061
1.68564
1.66545
1.58214
1.57984
1.57938
1.57992
1.58124
1.57962
1.57068
1.5502
1.52159
1.48493
1.45253
1.40811
1.4164
1.5162
1.69556
1.8363
1.84612
1.82556
1.7862
1.74526
1.70731
1.67345
1.64276
1.61407
1.58688
1.5608
1.53699
1.5135
1.48895
1.46568
1.44557
1.42468
1.40202
1.37814
1.36005
1.34461
1.33359
1.32578
1.34761
1.45185
1.60522
1.70402
1.73288
1.7299
1.71584
1.69656
1.68058
1.66666
1.65293
1.63927
1.62688
1.61485
1.60225
1.589
1.57467
1.55989
1.55046
1.54723
1.55956
1.61706
1.70185
1.75902
1.80317
1.80457
1.79435
1.76869
1.75027
1.73617
1.72546
1.71687
1.70868
1.69944
1.68741
1.67196
1.65173
1.631
1.6181
1.61112
1.60542
1.59967
1.59334
1.58605
1.57766
1.56564
1.54881
1.53392
1.52865
1.52632
1.53187
1.55031
1.58279
1.61739
1.64419
1.6563
1.66153
1.6569
1.5617
1.56623
1.57198
1.57522
1.57763
1.57862
1.57458
1.5651
1.54517
1.52049
1.49116
1.52572
1.68376
1.85242
1.91629
1.91018
1.87872
1.83985
1.80146
1.76414
1.72768
1.69202
1.65774
1.6252
1.59453
1.5651
1.53771
1.51234
1.48953
1.46963
1.45115
1.42965
1.40548
1.38098
1.35908
1.3407
1.32394
1.31015
1.30138
1.30711
1.36601
1.4949
1.62044
1.67172
1.68372
1.68035
1.66894
1.65452
1.63954
1.62558
1.61178
1.59975
1.59185
1.5821
1.5734
1.56065
1.55989
1.58639
1.66121
1.75775
1.80427
1.80873
1.8062
1.79887
1.78206
1.75982
1.74215
1.72818
1.71726
1.70902
1.70214
1.69515
1.6855
1.67007
1.64788
1.62597
1.61311
1.60575
1.59994
1.59421
1.58809
1.58157
1.57393
1.5625
1.54428
1.52715
1.51889
1.51498
1.51363
1.51195
1.51804
1.53693
1.56763
1.59783
1.62204
1.63429
1.52776
1.57574
1.58003
1.57583
1.57115
1.57177
1.57273
1.57005
1.55814
1.56232
1.65207
1.83323
1.97693
2.00478
1.98627
1.93894
1.89121
1.85013
1.81346
1.77783
1.74178
1.7051
1.66859
1.63369
1.60158
1.57242
1.54609
1.52101
1.49523
1.46938
1.44582
1.4251
1.40605
1.38624
1.36538
1.34534
1.32551
1.30908
1.29368
1.28169
1.278
1.29983
1.39076
1.52258
1.60388
1.63273
1.64364
1.63597
1.62445
1.61351
1.60018
1.58646
1.5751
1.57169
1.56997
1.58201
1.63458
1.71831
1.79153
1.83457
1.83469
1.8273
1.80693
1.78498
1.76595
1.75006
1.7375
1.72519
1.71361
1.70355
1.69445
1.68552
1.67568
1.66251
1.64401
1.6234
1.61023
1.60217
1.59579
1.58982
1.58353
1.57657
1.56779
1.55471
1.53754
1.52222
1.51386
1.50895
1.5051
1.50197
1.49761
1.49404
1.49999
1.52046
1.54965
1.58968
1.37043
1.53673
1.56201
1.55864
1.55826
1.5617
1.56689
1.57508
1.61524
1.77239
1.98401
2.05291
2.04398
2.02125
1.98308
1.94401
1.90231
1.86063
1.82206
1.78612
1.75096
1.71509
1.67798
1.64094
1.60695
1.57722
1.55001
1.52441
1.50092
1.47879
1.45542
1.43006
1.40568
1.38124
1.36085
1.34722
1.33326
1.31673
1.29917
1.28031
1.26769
1.25874
1.26318
1.31072
1.42053
1.52567
1.58876
1.61257
1.6134
1.60375
1.58878
1.57594
1.56974
1.5796
1.61828
1.69634
1.7724
1.81849
1.82954
1.83025
1.82564
1.81757
1.80021
1.7738
1.75286
1.7419
1.73392
1.72407
1.71269
1.70063
1.68831
1.67658
1.66622
1.65554
1.6402
1.6225
1.60954
1.60034
1.59268
1.58569
1.57862
1.57077
1.5616
1.5499
1.53528
1.52051
1.51077
1.50567
1.50147
1.4976
1.49113
1.4843
1.47542
1.4746
1.48111
1.52222
1.1154
1.35474
1.4815
1.54191
1.55516
1.56321
1.59715
1.69905
1.87878
2.05321
2.13505
2.12567
2.07561
2.02151
1.98087
1.94502
1.90746
1.86761
1.82808
1.79158
1.7569
1.72089
1.68351
1.64657
1.61202
1.58268
1.5578
1.53205
1.50369
1.47678
1.45686
1.4391
1.41797
1.39477
1.37119
1.34783
1.32522
1.30585
1.29177
1.27642
1.26473
1.25177
1.24328
1.23797
1.25643
1.32896
1.45146
1.53093
1.57897
1.58366
1.57941
1.58992
1.63233
1.69059
1.76551
1.822
1.85452
1.85957
1.8477
1.82691
1.81028
1.79898
1.78496
1.76472
1.74557
1.73386
1.72776
1.72102
1.71244
1.70133
1.68809
1.67404
1.66003
1.64571
1.63045
1.6172
1.6073
1.59895
1.59114
1.58353
1.57592
1.56761
1.55769
1.54654
1.53454
1.52353
1.51611
1.50972
1.50295
1.49589
1.48845
1.48006
1.47224
1.46221
1.45026
1.46128
1.00749
1.09302
1.28301
1.47746
1.52653
1.59077
1.8023
1.98184
2.08908
2.12447
2.1244
2.11534
2.08553
2.0355
1.98781
1.94597
1.90784
1.87102
1.83326
1.79522
1.75855
1.72264
1.68546
1.65022
1.61956
1.59384
1.56916
1.54092
1.5111
1.48504
1.46107
1.43642
1.41143
1.39409
1.3787
1.35659
1.33167
1.31059
1.29554
1.28141
1.26772
1.2542
1.23993
1.22564
1.21155
1.21368
1.26058
1.37158
1.4943
1.54987
1.58559
1.68446
1.7841
1.83848
1.86018
1.8609
1.85855
1.85202
1.84198
1.82747
1.80801
1.78994
1.77471
1.76292
1.75258
1.73993
1.72909
1.7203
1.71138
1.70098
1.68859
1.67493
1.66012
1.64436
1.63104
1.6211
1.61245
1.60458
1.597
1.58895
1.57992
1.56939
1.55737
1.54567
1.53547
1.52429
1.51124
1.50191
1.49558
1.48959
1.48391
1.47836
1.47247
1.46264
1.44365
1.43059
1.00012
1.00583
1.05837
1.27976
1.56136
1.75916
1.99493
2.1147
2.17719
2.16155
2.12576
2.10405
2.08271
2.04488
1.99666
1.9469
1.90269
1.8693
1.84387
1.81493
1.77565
1.7323
1.68935
1.65198
1.62133
1.59122
1.5628
1.54659
1.53061
1.50654
1.47587
1.44611
1.42219
1.40271
1.38124
1.35281
1.33035
1.3225
1.31285
1.30066
1.2841
1.26524
1.24446
1.22579
1.20857
1.19365
1.19413
1.22416
1.337
1.52905
1.66537
1.80315
1.88467
1.91498
1.90947
1.89262
1.86344
1.84118
1.83257
1.82569
1.81224
1.79084
1.76956
1.75389
1.74305
1.73437
1.72498
1.71578
1.70667
1.6977
1.68826
1.67608
1.65917
1.64085
1.62572
1.61572
1.60825
1.60056
1.59238
1.58365
1.57376
1.56467
1.55817
1.55159
1.5424
1.52845
1.51016
1.49852
1.49311
1.48932
1.48543
1.48027
1.47297
1.46149
1.44084
1.42418
1.00014
1.0032
1.06725
1.25505
1.54079
1.84052
1.98046
2.08917
2.173
2.15005
2.11116
2.09694
2.08221
2.05336
2.00787
1.95883
1.91521
1.87837
1.84246
1.80468
1.76307
1.72214
1.69273
1.66549
1.63557
1.60482
1.57465
1.54506
1.51679
1.49017
1.46064
1.43505
1.42573
1.41516
1.39493
1.36662
1.33605
1.31098
1.29416
1.28294
1.27109
1.25503
1.23769
1.22792
1.21688
1.20075
1.19769
1.22498
1.32408
1.50377
1.70598
1.81767
1.86318
1.90916
1.90839
1.88072
1.85631
1.84251
1.83257
1.8266
1.81526
1.79646
1.77615
1.75419
1.73741
1.73166
1.72697
1.72046
1.7126
1.70409
1.69439
1.68031
1.661
1.64097
1.62564
1.61544
1.60797
1.60077
1.59243
1.58346
1.57451
1.5667
1.55868
1.54907
1.53795
1.52424
1.51095
1.50341
1.49965
1.49597
1.49169
1.48599
1.47733
1.46283
1.44071
1.42336
1.00904
1.07235
1.29229
1.45283
1.51329
1.67305
1.78587
1.9468
2.07185
2.11259
2.11467
2.10906
2.08017
2.03614
1.99408
1.95547
1.91808
1.87936
1.83883
1.79902
1.76153
1.72322
1.68338
1.64692
1.61546
1.58695
1.56019
1.53434
1.50998
1.48507
1.46092
1.44021
1.41891
1.3959
1.37515
1.35493
1.3333
1.3121
1.29331
1.27806
1.26673
1.25743
1.24236
1.22709
1.21388
1.21808
1.26547
1.37686
1.4916
1.53303
1.61445
1.69249
1.75365
1.82593
1.84884
1.85486
1.85686
1.85448
1.84318
1.83101
1.81675
1.79941
1.77823
1.75731
1.74186
1.72968
1.72086
1.71413
1.70705
1.69844
1.6886
1.67844
1.66559
1.6481
1.62654
1.61122
1.60523
1.60041
1.59525
1.58876
1.58184
1.57375
1.56414
1.55335
1.54059
1.52387
1.50761
1.4996
1.49501
1.49039
1.48505
1.47873
1.47119
1.45958
1.44205
1.43142
1.12506
1.31548
1.49787
1.54031
1.55774
1.57501
1.59473
1.67902
1.8709
2.05911
2.12873
2.12218
2.07737
2.02542
1.98751
1.95256
1.91388
1.8709
1.82649
1.78491
1.74776
1.71273
1.67819
1.64507
1.61463
1.5878
1.56199
1.53469
1.50573
1.47716
1.45197
1.4315
1.41144
1.38926
1.36798
1.35408
1.3409
1.32482
1.30662
1.28649
1.26695
1.24967
1.24062
1.23241
1.24955
1.33256
1.44821
1.54429
1.58416
1.58228
1.58271
1.58728
1.61141
1.67709
1.76698
1.82883
1.8586
1.86257
1.85216
1.83189
1.81506
1.80246
1.78533
1.76456
1.74523
1.73136
1.7239
1.71849
1.71156
1.70178
1.68946
1.67568
1.66148
1.64611
1.62816
1.61463
1.60669
1.59866
1.59008
1.58301
1.57637
1.56868
1.55935
1.54864
1.53691
1.52342
1.511
1.50367
1.49795
1.49275
1.48688
1.48026
1.47268
1.46174
1.44968
1.46141
1.37229
1.50794
1.56183
1.56671
1.57012
1.57386
1.57231
1.57358
1.61219
1.7816
1.98932
2.05448
2.05023
2.02705
1.9905
1.94641
1.90025
1.85518
1.81304
1.77488
1.74083
1.70947
1.67883
1.64713
1.61424
1.58214
1.55215
1.52415
1.49939
1.47806
1.45622
1.43095
1.40377
1.38138
1.36385
1.3441
1.32464
1.31044
1.29818
1.28461
1.27034
1.25359
1.25673
1.30108
1.41633
1.52797
1.59355
1.61853
1.61666
1.60563
1.58813
1.5762
1.56804
1.57634
1.62289
1.70478
1.77783
1.82471
1.8347
1.83253
1.82565
1.81379
1.79518
1.77209
1.75222
1.73915
1.73188
1.72483
1.716
1.7046
1.69126
1.67793
1.66491
1.65113
1.6355
1.61917
1.60779
1.59955
1.59209
1.58567
1.57951
1.57272
1.56453
1.55249
1.53591
1.52457
1.5184
1.51243
1.50565
1.49898
1.49165
1.4851
1.47637
1.47535
1.48223
1.5236
1.52068
1.56675
1.5798
1.57924
1.57658
1.57516
1.57046
1.56687
1.55675
1.56261
1.65683
1.83655
1.97926
2.01059
1.99054
1.93823
1.88662
1.8429
1.80461
1.7694
1.73647
1.70493
1.67359
1.6416
1.60933
1.57827
1.54975
1.52302
1.49792
1.47333
1.44825
1.42337
1.4011
1.38005
1.36032
1.34334
1.32626
1.31101
1.29756
1.28673
1.28089
1.29991
1.38834
1.51361
1.60825
1.6358
1.64753
1.64
1.62664
1.61318
1.59941
1.58518
1.57295
1.56813
1.56725
1.58203
1.63562
1.72239
1.7972
1.8369
1.83555
1.82312
1.80189
1.78286
1.76574
1.75141
1.73989
1.72862
1.71783
1.70702
1.69542
1.68371
1.67192
1.65835
1.64125
1.62322
1.61095
1.6037
1.5976
1.59226
1.58674
1.5801
1.57093
1.55613
1.53618
1.52099
1.51391
1.50962
1.50708
1.50417
1.50036
1.4961
1.50106
1.52098
1.5498
1.59052
1.55545
1.56328
1.57019
1.57722
1.57938
1.57772
1.57354
1.56346
1.54378
1.52037
1.49118
1.52426
1.67744
1.84996
1.91338
1.90524
1.87284
1.83373
1.79591
1.7609
1.72844
1.69711
1.66606
1.63457
1.60224
1.57002
1.54053
1.5134
1.48923
1.46696
1.44593
1.42321
1.39979
1.37626
1.35584
1.34088
1.32712
1.31531
1.30703
1.31149
1.36352
1.49475
1.61802
1.669
1.68515
1.6826
1.671
1.65715
1.64217
1.62722
1.61314
1.59914
1.58681
1.57509
1.56712
1.55782
1.55933
1.58798
1.6644
1.75149
1.79738
1.80626
1.80513
1.79835
1.78314
1.76398
1.74642
1.73184
1.72057
1.71128
1.70118
1.69029
1.67881
1.6654
1.64836
1.62993
1.61607
1.60897
1.60425
1.5993
1.59344
1.58556
1.57398
1.5563
1.53645
1.52379
1.51922
1.51635
1.5167
1.51657
1.52317
1.53883
1.56625
1.5963
1.62071
1.6331
1.58093
1.5794
1.58031
1.58237
1.58219
1.57874
1.56811
1.54814
1.52071
1.48526
1.45238
1.4075
1.41385
1.50985
1.6884
1.82777
1.8456
1.82462
1.78553
1.7466
1.71201
1.68059
1.65082
1.6216
1.59183
1.56219
1.53493
1.50857
1.48384
1.46055
1.4397
1.41878
1.3982
1.37607
1.35942
1.34693
1.33938
1.3322
1.35212
1.4544
1.60275
1.70754
1.72998
1.72337
1.70839
1.69333
1.67971
1.66792
1.65628
1.64325
1.62924
1.61384
1.59913
1.58471
1.57168
1.55912
1.55381
1.55024
1.56141
1.61344
1.6937
1.75904
1.80193
1.80291
1.79579
1.77336
1.75361
1.73889
1.72702
1.71758
1.70717
1.6958
1.68367
1.67004
1.65404
1.63756
1.62435
1.61542
1.60942
1.60336
1.59605
1.58627
1.57328
1.55652
1.54121
1.53293
1.53153
1.53133
1.53828
1.55494
1.58584
1.61611
1.64319
1.65128
1.65474
1.65129
1.58184
1.58049
1.58026
1.57949
1.57845
1.57034
1.55131
1.51748
1.48271
1.44751
1.40781
1.36241
1.32979
1.3185
1.37102
1.54191
1.71754
1.77161
1.75956
1.72571
1.68974
1.65841
1.6311
1.60612
1.58003
1.55305
1.52681
1.50136
1.47615
1.45503
1.43826
1.42216
1.40577
1.38765
1.37328
1.35908
1.36187
1.41671
1.55895
1.70481
1.76776
1.77769
1.76864
1.7463
1.72542
1.70667
1.69087
1.67777
1.66665
1.65537
1.64214
1.62585
1.60897
1.5928
1.57735
1.56535
1.55542
1.54763
1.5402
1.54168
1.56709
1.62898
1.70827
1.76215
1.77336
1.77048
1.76152
1.74883
1.73486
1.72143
1.70875
1.69681
1.68499
1.67234
1.65838
1.64427
1.63178
1.62098
1.61119
1.60276
1.59431
1.58486
1.5737
1.56159
1.5519
1.54826
1.55151
1.56539
1.59776
1.63212
1.66156
1.67655
1.68642
1.68486
1.67896
1.66265
1.5809
1.58121
1.58018
1.57806
1.57178
1.55233
1.51699
1.47789
1.44004
1.39455
1.33976
1.31657
1.29132
1.25514
1.22216
1.25316
1.3992
1.59121
1.69899
1.69698
1.67533
1.64303
1.61138
1.58551
1.56222
1.53981
1.51825
1.49904
1.47776
1.45983
1.44494
1.43334
1.41706
1.40247
1.38805
1.40826
1.51737
1.67901
1.78786
1.81507
1.80968
1.79181
1.77163
1.75493
1.73976
1.72336
1.70645
1.69027
1.67533
1.66078
1.64616
1.63066
1.61567
1.60143
1.58698
1.5734
1.55972
1.5476
1.53546
1.52962
1.5205
1.5261
1.56738
1.64296
1.71125
1.75496
1.76038
1.75587
1.74116
1.72254
1.7081
1.69565
1.68384
1.67182
1.65966
1.64799
1.63605
1.6238
1.61098
1.60034
1.59114
1.58273
1.57492
1.57081
1.57151
1.57981
1.60157
1.64305
1.6752
1.69479
1.70008
1.70192
1.70086
1.69584
1.68858
1.67051
1.58252
1.58194
1.57947
1.57309
1.55238
1.51556
1.46989
1.42612
1.38063
1.32596
1.28843
1.26581
1.2337
1.18909
1.16377
1.14432
1.15866
1.2728
1.48329
1.61637
1.64015
1.62451
1.59705
1.57323
1.55525
1.53854
1.521
1.50416
1.48687
1.47066
1.4564
1.44615
1.42888
1.43173
1.49234
1.64985
1.80007
1.8626
1.85759
1.84536
1.81969
1.79429
1.77561
1.76249
1.75077
1.73707
1.71966
1.69874
1.67845
1.66161
1.64698
1.63329
1.62026
1.60672
1.59291
1.57995
1.56685
1.55329
1.53993
1.5256
1.51299
1.49711
1.4968
1.51973
1.58374
1.66536
1.72599
1.73561
1.73152
1.72222
1.70922
1.6962
1.68316
1.67073
1.65863
1.64816
1.63681
1.62327
1.60953
1.59865
1.59145
1.58603
1.58354
1.59212
1.61647
1.65143
1.68495
1.71442
1.71783
1.71926
1.71756
1.71328
1.70637
1.69873
1.69103
1.6735
1.57711
1.57386
1.5667
1.5465
1.51061
1.45742
1.40889
1.36731
1.31533
1.2528
1.22766
1.20758
1.17288
1.13708
1.1192
1.10076
1.08407
1.09367
1.18341
1.38212
1.54597
1.59652
1.58891
1.57221
1.55836
1.54416
1.53077
1.51732
1.50336
1.48556
1.47304
1.4636
1.48805
1.60211
1.77444
1.89784
1.90523
1.89744
1.87105
1.84165
1.81776
1.79887
1.78251
1.76809
1.75593
1.74281
1.72601
1.70368
1.67963
1.66006
1.64543
1.63425
1.62395
1.6122
1.59753
1.58159
1.5707
1.56234
1.5514
1.5349
1.51321
1.49241
1.48611
1.48584
1.49383
1.54082
1.61961
1.68498
1.70885
1.71276
1.70668
1.6938
1.68005
1.66821
1.65699
1.6468
1.63524
1.62078
1.60871
1.59983
1.59469
1.59944
1.62154
1.65976
1.70502
1.73709
1.74399
1.73378
1.72504
1.72109
1.71855
1.71834
1.71287
1.70497
1.69559
1.67564
1.56433
1.558
1.53944
1.50302
1.44559
1.39214
1.34973
1.29327
1.21938
1.19203
1.17449
1.1476
1.10164
1.0846
1.07759
1.06091
1.05001
1.04646
1.05294
1.12296
1.3122
1.51869
1.56756
1.5726
1.57094
1.56238
1.54975
1.53773
1.52652
1.50845
1.50965
1.56577
1.7308
1.87934
1.9525
1.95321
1.93483
1.89703
1.86266
1.83756
1.81833
1.80293
1.79174
1.78064
1.7659
1.74803
1.72744
1.70517
1.68288
1.66306
1.64574
1.63247
1.62226
1.6128
1.60121
1.5874
1.57369
1.559
1.54302
1.52481
1.50477
1.49601
1.48909
1.48097
1.47546
1.48103
1.50907
1.56717
1.62902
1.67149
1.67574
1.67386
1.67131
1.66368
1.65453
1.64399
1.63188
1.62185
1.61031
1.60988
1.62294
1.66323
1.71051
1.74948
1.77421
1.77446
1.76746
1.74832
1.72545
1.71373
1.70879
1.70515
1.70093
1.69563
1.68854
1.67351
1.55111
1.53435
1.49797
1.43675
1.3707
1.32407
1.26591
1.19588
1.16341
1.14431
1.10917
1.06988
1.06182
1.06251
1.05652
1.04525
1.04417
1.04282
1.04292
1.04648
1.0934
1.29089
1.49788
1.56103
1.58499
1.5842
1.57329
1.56129
1.54851
1.56405
1.65981
1.84663
1.96907
1.97694
1.96959
1.94492
1.91676
1.8894
1.86531
1.8459
1.82889
1.81228
1.79391
1.7744
1.75572
1.73722
1.71933
1.70294
1.68675
1.66904
1.65119
1.6353
1.62087
1.6081
1.59863
1.59042
1.57916
1.56193
1.54054
1.51952
1.50495
1.49556
1.48716
1.47969
1.47211
1.46585
1.46153
1.47194
1.50756
1.56627
1.61915
1.64101
1.65624
1.66121
1.65397
1.64276
1.63528
1.62958
1.63409
1.65502
1.70097
1.751
1.77743
1.78496
1.78214
1.77625
1.76685
1.75215
1.73318
1.71794
1.70601
1.69869
1.6943
1.6895
1.68141
1.66586
1.53325
1.49404
1.42927
1.34776
1.2871
1.22936
1.16483
1.12183
1.09542
1.07092
1.0447
1.03573
1.03748
1.04249
1.04377
1.04551
1.04945
1.05514
1.05986
1.06425
1.07184
1.11326
1.29838
1.47515
1.57595
1.59072
1.58826
1.59181
1.63073
1.76818
1.93163
2.01671
2.02752
2.00797
1.96675
1.93397
1.91072
1.8902
1.86887
1.84715
1.8268
1.80828
1.79004
1.77137
1.75336
1.7363
1.71974
1.70305
1.68571
1.66759
1.64961
1.63339
1.61992
1.60959
1.60014
1.58937
1.5761
1.55904
1.5376
1.51754
1.50511
1.49654
1.48881
1.48115
1.47259
1.46339
1.45494
1.44718
1.44671
1.45877
1.50767
1.56661
1.61391
1.64407
1.64579
1.64678
1.65566
1.6748
1.7021
1.7385
1.7777
1.79478
1.79569
1.79731
1.79151
1.77723
1.7647
1.7518
1.73495
1.7137
1.69807
1.68984
1.685
1.68073
1.67532
1.66292
1.49715
1.41462
1.31209
1.24411
1.19528
1.12305
1.07564
1.07981
1.07241
1.06075
1.05407
1.0512
1.05391
1.05851
1.0657
1.07458
1.08108
1.08547
1.08736
1.09085
1.09031
1.0925
1.12228
1.26847
1.47418
1.5606
1.63051
1.72092
1.87048
1.97271
2.03781
2.03236
2.00864
1.98276
1.96078
1.9415
1.92191
1.90162
1.88105
1.85914
1.83643
1.81359
1.79185
1.77416
1.75866
1.74355
1.72852
1.71275
1.69547
1.67606
1.65611
1.63967
1.6278
1.61763
1.60692
1.59516
1.58124
1.56339
1.54225
1.52482
1.51474
1.50736
1.50015
1.49159
1.48182
1.47055
1.45908
1.44748
1.43474
1.42659
1.43421
1.47125
1.52804
1.59439
1.63569
1.68202
1.73132
1.76942
1.78449
1.79119
1.80007
1.79824
1.79325
1.78975
1.7829
1.77541
1.76664
1.75616
1.74029
1.71458
1.69242
1.68401
1.6786
1.67416
1.67327
1.66704
1.39889
1.23157
1.10177
1.03637
0.991562
0.96564
0.971628
1.01352
1.05257
1.06094
1.07402
1.08875
1.09354
1.09593
1.10209
1.11238
1.11567
1.11557
1.11469
1.11459
1.11287
1.1066
1.10657
1.12619
1.24896
1.52123
1.76342
1.97912
2.13689
2.18316
2.13543
2.0526
1.9939
1.96843
1.95429
1.93758
1.91815
1.89666
1.87408
1.85121
1.82791
1.80516
1.78413
1.76478
1.74792
1.73334
1.71951
1.70474
1.68749
1.6668
1.64562
1.62962
1.61844