/*--------------------------------*- C++ -*----------------------------------*\
  =========                 |
  \\      /  F ield         | OpenFOAM: The Open Source CFD Toolbox
   \\    /   O peration     | Website:  https://openfoam.org
    \\  /    A nd           | Version:  7
     \\/     M anipulation  |
\*---------------------------------------------------------------------------*/
FoamFile
{
    version     2.0;
    format      ascii;
    class       volVectorField;
    location    "2";
    object      U;
}
// * * * * * * * * * * * * * * * * * * * * * * * * * * * * * * * * * * * * * //

dimensions      [0 1 -1 0 0 0 0];

internalField   nonuniform List<vector> 
4608
(
(3 1.14432e-16 0)
(3 5.2512e-17 0)
(3 -2.24278e-17 0)
(3 -2.02697e-16 0)
(3 -2.82916e-16 0)
(3 -4.96199e-17 0)
(3 6.05159e-16 0)
(3 1.14483e-15 0)
(3 1.30023e-15 0)
(3 1.08114e-15 0)
(3 6.94436e-16 0)
(3 -2.20001e-16 0)
(3 -9.52523e-16 0)
(3 -1.11254e-15 0)
(3 -7.77657e-16 0)
(3 3.80518e-16 0)
(3 1.4767e-16 0)
(3 -6.87601e-16 0)
(3 -1.90527e-15 0)
(3 -2.222e-15 0)
(3 -1.90366e-15 0)
(3 -1.63824e-15 0)
(3 -1.68444e-15 0)
(3 -1.32516e-15 0)
(3 2.03747e-16 0)
(3 3.44724e-16 0)
(3 -1.84914e-17 0)
(3 -3.97395e-16 0)
(3 -1.00111e-16 0)
(3 2.7849e-16 0)
(3 7.1329e-16 0)
(3 1.59769e-15 0)
(3 1.46845e-15 0)
(3 1.11352e-15 0)
(3 8.04282e-16 0)
(3 -3.09533e-17 0)
(3 -6.89408e-16 0)
(3 -1.46179e-15 0)
(3 -1.1839e-15 0)
(3 -6.16418e-16 0)
(3 -5.56662e-16 0)
(3 -1.03507e-15 0)
(3 -1.78591e-15 0)
(3 -2.52097e-15 0)
(3 -3.78231e-15 0)
(3 -3.92866e-15 0)
(3 -2.80025e-15 0)
(3 -2.22598e-15 0)
(3 9.12247e-17 0)
(3 2.53744e-16 0)
(3 2.52729e-18 0)
(3 9.36508e-17 0)
(3 3.05633e-16 0)
(3 2.99454e-16 0)
(3 -1.01396e-16 0)
(3 -2.6869e-16 0)
(3 -8.11023e-16 0)
(3 -8.96778e-16 0)
(3 -2.20657e-16 0)
(3 3.26521e-16 0)
(3 7.24709e-16 0)
(3 -1.6261e-16 0)
(3 -4.99999e-16 0)
(3 -6.84653e-16 0)
(3 -5.44617e-16 0)
(3 -5.18982e-16 0)
(3 -6.11387e-16 0)
(3 -9.31717e-16 0)
(3 -1.11925e-15 0)
(3 -1.90046e-15 0)
(3 -2.19584e-15 0)
(3 -1.12763e-15 0)
(3 -1.32181e-16 0)
(3 1.35882e-16 0)
(3 5.10531e-17 0)
(3 4.98898e-16 0)
(3 5.05477e-16 0)
(3 -1.25602e-16 0)
(3 -8.55186e-16 0)
(3 -2.4527e-15 0)
(3 -2.75607e-15 0)
(3 -2.17451e-15 0)
(3 -1.68927e-15 0)
(3 -8.41366e-16 0)
(3 -5.49071e-16 0)
(3 5.36092e-16 0)
(3 7.84539e-16 0)
(3 -1.63101e-16 0)
(3 -3.14779e-16 0)
(3 -5.64847e-16 0)
(3 -7.16288e-16 0)
(3 -8.69827e-16 0)
(3 -2.28206e-15 0)
(3 -2.46579e-15 0)
(3 -1.80118e-15 0)
(3 -4.51634e-16 0)
(3 5.02087e-17 0)
(3 1.54583e-16 0)
(3 4.55371e-16 0)
(3 1.21947e-15 0)
(3 1.50309e-15 0)
(3 -2.5383e-16 0)
(3 -1.10102e-15 0)
(3 -1.24832e-15 0)
(3 -1.45402e-15 0)
(3 -1.21263e-15 0)
(3 -1.25191e-15 0)
(3 -8.95069e-16 0)
(3 -8.76322e-16 0)
(3 -2.71005e-16 0)
(3 7.18385e-17 0)
(3 -3.12976e-16 0)
(3 -8.93398e-16 0)
(3 -1.61261e-15 0)
(3 -2.2879e-15 0)
(3 -2.04691e-15 0)
(3 -2.77501e-15 0)
(3 -1.72968e-15 0)
(3 -1.48969e-15 0)
(3 -7.04793e-16 0)
(3 3.54669e-17 0)
(3 1.10568e-16 0)
(3 1.25014e-16 0)
(3 2.59216e-16 0)
(3 2.53854e-16 0)
(3 -2.34716e-16 0)
(3 -6.66027e-17 0)
(3 -4.71372e-17 0)
(3 -6.39156e-17 0)
(3 -3.41169e-16 0)
(3 -3.94188e-16 0)
(3 2.66995e-16 0)
(3 5.95347e-16 0)
(3 2.90782e-17 0)
(3 -4.19839e-16 0)
(3 -4.36355e-16 0)
(3 -5.50491e-16 0)
(3 -5.80379e-16 0)
(3 -1.41754e-15 0)
(3 -1.77959e-15 0)
(3 -1.61702e-15 0)
(3 -7.52386e-16 0)
(3 -8.22676e-16 0)
(3 -1.34056e-15 0)
(3 -1.03717e-16 0)
(3 2.64844e-16 0)
(3 1.24003e-16 0)
(3 -9.27663e-17 0)
(3 -2.80946e-16 0)
(3 5.24434e-17 0)
(3 1.75506e-16 0)
(3 3.93606e-17 0)
(3 -5.46675e-17 0)
(3 -2.71922e-16 0)
(3 1.4627e-16 0)
(3 6.04396e-16 0)
(3 1.2231e-15 0)
(3 1.28856e-15 0)
(3 6.43168e-16 0)
(3 2.11975e-16 0)
(3 -3.67533e-16 0)
(3 -3.41087e-16 0)
(3 3.46753e-16 0)
(3 3.17203e-16 0)
(3 6.95793e-16 0)
(3 -4.36518e-16 0)
(3 -1.49954e-15 0)
(3 -2.05347e-15 0)
(3 -1.39948e-16 0)
(3 -1.11457e-16 0)
(3 -6.41462e-18 0)
(3 -2.23598e-17 0)
(3 -1.17299e-16 0)
(3 4.17254e-16 0)
(3 6.05278e-16 0)
(3 5.12278e-16 0)
(3 4.84113e-16 0)
(3 5.44625e-17 0)
(3 4.64064e-16 0)
(3 1.09356e-16 0)
(3 -2.05132e-16 0)
(3 -3.21238e-16 0)
(3 -6.49934e-16 0)
(3 -8.02714e-16 0)
(3 -8.58559e-16 0)
(3 -2.4016e-16 0)
(3 1.25755e-15 0)
(3 1.63035e-15 0)
(3 2.15538e-15 0)
(3 3.70525e-16 0)
(3 8.22544e-17 0)
(3 -1.12608e-15 0)
(3 -6.04123e-17 0)
(3 -2.46476e-16 0)
(3 -1.88972e-16 0)
(3 -3.21459e-16 0)
(3 -1.71901e-16 0)
(3 1.26486e-16 0)
(3 3.08617e-16 0)
(3 4.56487e-16 0)
(3 4.84039e-16 0)
(3 7.22641e-16 0)
(3 3.41304e-16 0)
(3 -8.08312e-16 0)
(3 -1.99078e-15 0)
(3 -2.97247e-15 0)
(3 -3.41287e-15 0)
(3 -3.13691e-15 0)
(3 -1.78093e-15 0)
(3 -7.57583e-16 0)
(3 -9.44721e-16 0)
(3 -2.02495e-15 0)
(3 -1.00379e-15 0)
(3 6.17652e-16 0)
(3 1.73539e-15 0)
(3 1.55271e-15 0)
(3 2.62001e-16 0)
(3 5.59638e-16 0)
(3 3.25719e-16 0)
(3 4.2758e-16 0)
(3 5.6636e-16 0)
(3 -9.18019e-17 0)
(3 -6.74208e-16 0)
(3 -8.4094e-16 0)
(3 -7.45084e-16 0)
(3 -7.62634e-17 0)
(3 -8.67379e-18 0)
(3 -3.50846e-16 0)
(3 -6.96347e-16 0)
(3 -6.88503e-16 0)
(3 -1.81727e-16 0)
(3 -3.52305e-17 0)
(3 -1.55887e-17 0)
(3 -3.62669e-16 0)
(3 -1.6333e-15 0)
(3 -3.55453e-15 0)
(3 -2.26969e-15 0)
(3 -5.3766e-16 0)
(3 1.14542e-15 0)
(3 3.74543e-15 0)
(3 1.45157e-17 0)
(3 1.29487e-16 0)
(3 -4.75325e-16 0)
(3 -6.65808e-16 0)
(3 -5.60441e-16 0)
(3 -1.7139e-16 0)
(3 3.31101e-16 0)
(3 5.30575e-16 0)
(3 7.81671e-16 0)
(3 6.04665e-16 0)
(3 5.11338e-16 0)
(3 1.1123e-15 0)
(3 1.75084e-15 0)
(3 2.18751e-15 0)
(3 2.48428e-15 0)
(3 2.38275e-15 0)
(3 1.60992e-15 0)
(3 3.52035e-16 0)
(3 2.55762e-17 0)
(3 2.52427e-16 0)
(3 1.98519e-16 0)
(3 -1.46645e-16 0)
(3 -4.00498e-16 0)
(3 -1.86756e-16 0)
(3 -2.04002e-16 0)
(3 -2.43828e-16 0)
(3 -3.78153e-16 0)
(3 -4.98329e-16 0)
(3 -2.73796e-16 0)
(3 -5.32731e-17 0)
(3 1.00749e-15 0)
(3 1.91052e-15 0)
(3 2.30113e-15 0)
(3 1.94747e-15 0)
(3 1.90624e-15 0)
(3 2.62223e-15 0)
(3 2.89141e-15 0)
(3 3.45592e-15 0)
(3 3.55526e-15 0)
(3 3.82422e-15 0)
(3 3.19118e-15 0)
(3 2.06065e-15 0)
(3 1.07385e-15 0)
(3 1.19473e-15 0)
(3 1.26747e-15 0)
(3 8.61038e-16 0)
(3 -5.10573e-16 0)
(3 -2.26918e-15 0)
(3 2.81806e-17 0)
(3 -4.66038e-16 0)
(3 1.36757e-17 0)
(3 2.78015e-16 0)
(3 3.40364e-16 0)
(3 -5.31998e-17 0)
(3 -1.06101e-16 0)
(3 1.05545e-15 0)
(3 1.27958e-15 0)
(3 1.36326e-15 0)
(3 1.70043e-15 0)
(3 1.74258e-15 0)
(3 2.20581e-15 0)
(3 2.47306e-15 0)
(3 3.33329e-15 0)
(3 3.41143e-15 0)
(3 2.69155e-15 0)
(3 2.63679e-15 0)
(3 1.6437e-15 0)
(3 6.86958e-16 0)
(3 8.4136e-16 0)
(3 1.26631e-15 0)
(3 5.34896e-16 0)
(3 -5.50776e-16 0)
(3 1.86881e-16 0)
(3 -1.91844e-16 0)
(3 3.45248e-16 0)
(3 1.65034e-16 0)
(3 1.56519e-16 0)
(3 4.57998e-17 0)
(3 -1.78467e-16 0)
(3 1.06497e-16 0)
(3 1.08714e-16 0)
(3 3.90489e-16 0)
(3 4.21969e-16 0)
(3 1.08025e-15 0)
(3 1.48305e-15 0)
(3 1.31166e-15 0)
(3 1.08849e-15 0)
(3 1.27688e-15 0)
(3 1.77464e-15 0)
(3 2.49546e-15 0)
(3 3.28891e-15 0)
(3 2.47867e-15 0)
(3 1.81156e-15 0)
(3 1.17463e-15 0)
(3 9.44877e-16 0)
(3 7.77984e-16 0)
(3 -3.85421e-17 0)
(3 1.76424e-16 0)
(3 3.08748e-16 0)
(3 4.11953e-16 0)
(3 4.09508e-16 0)
(3 3.2923e-16 0)
(3 3.31997e-17 0)
(3 6.18068e-17 0)
(3 -1.09087e-16 0)
(3 -2.9189e-17 0)
(3 -2.24605e-16 0)
(3 2.41438e-16 0)
(3 -4.2598e-16 0)
(3 -2.76657e-16 0)
(3 -6.74685e-16 0)
(3 -6.30408e-16 0)
(3 -4.14969e-16 0)
(3 -7.09648e-17 0)
(3 5.0422e-16 0)
(3 7.08536e-16 0)
(3 -3.80372e-17 0)
(3 -9.39016e-16 0)
(3 -1.18674e-15 0)
(3 -1.20679e-15 0)
(3 -1.68881e-16 0)
(3 1.16511e-16 0)
(3 -3.3881e-16 0)
(3 -6.20075e-16 0)
(3 -7.00189e-16 0)
(3 -3.97853e-16 0)
(3 -3.87105e-16 0)
(3 -2.83483e-16 0)
(3 -4.17003e-16 0)
(3 -8.50901e-16 0)
(3 -1.88096e-15 0)
(3 -2.69673e-15 0)
(3 -3.17845e-15 0)
(3 -3.13428e-15 0)
(3 -3.32983e-15 0)
(3 -3.30698e-15 0)
(3 -3.59015e-15 0)
(3 -3.69852e-15 0)
(3 -2.72565e-15 0)
(3 -1.19013e-15 0)
(3 -1.60017e-15 0)
(3 -2.64069e-15 0)
(3 -3.92919e-15 0)
(3 -3.74783e-15 0)
(3 2.00841e-16 0)
(3 4.35105e-16 0)
(3 2.88117e-16 0)
(3 -8.89141e-17 0)
(3 -3.36508e-16 0)
(3 -4.40287e-16 0)
(3 -4.0203e-16 0)
(3 -1.49829e-15 0)
(3 -1.7626e-15 0)
(3 -1.65842e-15 0)
(3 -1.84162e-15 0)
(3 -2.54437e-15 0)
(3 -2.28581e-15 0)
(3 -2.29849e-15 0)
(3 -2.31614e-15 0)
(3 -2.88645e-15 0)
(3 -2.58846e-15 0)
(3 -1.80327e-15 0)
(3 -2.39487e-15 0)
(3 -2.3857e-15 0)
(3 -2.33587e-15 0)
(3 -1.66058e-15 0)
(3 -9.53903e-16 0)
(3 -4.47445e-16 0)
(3 3.3984e-17 0)
(3 6.71495e-17 0)
(3 1.52419e-16 0)
(3 3.53123e-18 0)
(3 2.22266e-17 0)
(3 -6.15337e-16 0)
(3 -1.11166e-15 0)
(3 -9.51546e-16 0)
(3 -9.09605e-16 0)
(3 -1.38791e-15 0)
(3 -1.70868e-15 0)
(3 -1.57478e-15 0)
(3 -8.68461e-16 0)
(3 7.45043e-17 0)
(3 3.59057e-16 0)
(3 2.09484e-16 0)
(3 8.81642e-17 0)
(3 2.84066e-16 0)
(3 -2.64988e-16 0)
(3 -1.23777e-15 0)
(3 -7.04509e-16 0)
(3 3.56381e-16 0)
(3 1.14015e-15 0)
(3 1.40017e-15 0)
(3 -2.34328e-16 0)
(3 -2.76165e-16 0)
(3 -1.26645e-16 0)
(3 2.56973e-16 0)
(3 3.37756e-16 0)
(3 -2.77487e-16 0)
(3 -4.98438e-16 0)
(3 -6.63089e-16 0)
(3 -6.36316e-16 0)
(3 -7.19321e-16 0)
(3 -1.45103e-15 0)
(3 -1.47231e-15 0)
(3 -3.61889e-16 0)
(3 5.56412e-16 0)
(3 2.46755e-15 0)
(3 3.13615e-15 0)
(3 2.59299e-15 0)
(3 1.1366e-15 0)
(3 7.16527e-16 0)
(3 3.27846e-16 0)
(3 7.47584e-16 0)
(3 2.26553e-16 0)
(3 -6.41571e-16 0)
(3 -1.03447e-15 0)
(3 -4.69777e-18 0)
(3 -5.78767e-16 0)
(3 -3.98065e-16 0)
(3 -4.67979e-18 0)
(3 -2.88488e-16 0)
(3 -2.15193e-16 0)
(3 -4.0905e-17 0)
(3 -3.73318e-16 0)
(3 -9.32275e-16 0)
(3 -6.36548e-16 0)
(3 1.52399e-16 0)
(3 9.39632e-16 0)
(3 8.38198e-16 0)
(3 7.60271e-16 0)
(3 1.35601e-15 0)
(3 1.91715e-15 0)
(3 1.60366e-15 0)
(3 1.26918e-15 0)
(3 1.65724e-15 0)
(3 2.10861e-15 0)
(3 1.08032e-15 0)
(3 -1.88201e-16 0)
(3 -1.05827e-15 0)
(3 -1.60809e-15 0)
(3 -3.45634e-17 0)
(3 -4.56987e-17 0)
(3 -6.57401e-16 0)
(3 -7.33109e-16 0)
(3 -5.57836e-16 0)
(3 1.19308e-16 0)
(3 1.75836e-16 0)
(3 2.32372e-16 0)
(3 1.4356e-17 0)
(3 2.53016e-16 0)
(3 6.64229e-16 0)
(3 9.97819e-16 0)
(3 8.92578e-16 0)
(3 1.21394e-15 0)
(3 7.27497e-16 0)
(3 1.42846e-15 0)
(3 2.35384e-15 0)
(3 3.39855e-15 0)
(3 1.20449e-15 0)
(3 -8.33318e-16 0)
(3 -2.88336e-16 0)
(3 9.88489e-16 0)
(3 -9.94728e-17 0)
(3 -6.67853e-16 0)
(3 1.1565e-16 0)
(3 6.19363e-16 0)
(3 4.56756e-16 0)
(3 1.58101e-16 0)
(3 6.41518e-16 0)
(3 6.49635e-16 0)
(3 6.57734e-16 0)
(3 4.33431e-16 0)
(3 1.4802e-15 0)
(3 2.25228e-15 0)
(3 2.16202e-15 0)
(3 1.99279e-15 0)
(3 1.5671e-15 0)
(3 8.05691e-16 0)
(3 4.97403e-16 0)
(3 1.02849e-15 0)
(3 1.29769e-15 0)
(3 1.79671e-16 0)
(3 -5.49459e-16 0)
(3 -6.72171e-16 0)
(3 -4.44106e-16 0)
(3 4.28075e-16 0)
(3 3.52452e-16 0)
(3 -3.60605e-17 0)
(3 3.86474e-17 0)
(3 -1.22969e-16 0)
(3 -1.04107e-16 0)
(3 -2.78695e-16 0)
(3 -6.12882e-16 0)
(3 -4.42381e-16 0)
(3 4.2088e-16 0)
(3 8.31172e-16 0)
(3 1.16285e-15 0)
(3 1.73895e-15 0)
(3 2.48337e-15 0)
(3 2.61791e-15 0)
(3 1.95054e-15 0)
(3 1.52247e-15 0)
(3 1.9088e-15 0)
(3 1.89289e-15 0)
(3 1.29258e-15 0)
(3 2.6792e-16 0)
(3 -6.09475e-17 0)
(3 -2.56352e-16 0)
(3 -6.28374e-16 0)
(3 -1.16089e-15 0)
(3 -2.10782e-16 0)
(3 6.522e-17 0)
(3 1.82972e-17 0)
(3 -1.4368e-16 0)
(3 -1.17291e-16 0)
(3 -5.84343e-16 0)
(3 -1.0215e-15 0)
(3 -8.91028e-16 0)
(3 -1.36171e-17 0)
(3 9.47478e-16 0)
(3 1.05714e-15 0)
(3 6.57313e-16 0)
(3 6.24068e-16 0)
(3 -9.82026e-17 0)
(3 -1.03734e-15 0)
(3 -1.93618e-15 0)
(3 -2.022e-15 0)
(3 -1.08914e-15 0)
(3 -8.9412e-16 0)
(3 -6.54051e-16 0)
(3 -9.67272e-17 0)
(3 -2.8762e-16 0)
(3 -9.20366e-16 0)
(3 -1.47168e-15 0)
(3 -1.68936e-15 0)
(3 -1.09395e-16 0)
(3 1.55309e-16 0)
(3 3.32794e-16 0)
(3 3.01493e-16 0)
(3 2.05754e-16 0)
(3 2.78148e-16 0)
(3 2.00393e-16 0)
(3 6.93294e-17 0)
(3 2.47353e-16 0)
(3 1.82695e-16 0)
(3 -5.32981e-16 0)
(3 -1.98534e-15 0)
(3 -2.62005e-15 0)
(3 -2.48996e-15 0)
(3 -3.30934e-15 0)
(3 -3.84552e-15 0)
(3 -4.6844e-15 0)
(3 -4.43986e-15 0)
(3 -3.45073e-15 0)
(3 -2.26651e-15 0)
(3 -8.0867e-16 0)
(3 -1.42608e-16 0)
(3 -3.44098e-16 0)
(3 -2.43752e-16 0)
(3 1.16948e-15 0)
(3 -5.11876e-17 0)
(3 -2.80525e-16 0)
(3 -1.15824e-16 0)
(3 4.22917e-16 0)
(3 7.71167e-16 0)
(3 4.76408e-16 0)
(3 -1.11388e-16 0)
(3 -1.16382e-15 0)
(3 -1.50548e-15 0)
(3 -1.20011e-15 0)
(3 -8.23831e-16 0)
(3 -2.08607e-16 0)
(3 -2.49961e-16 0)
(3 -1.02015e-15 0)
(3 -1.5756e-15 0)
(3 -1.59464e-15 0)
(3 -1.24464e-15 0)
(3 -9.54358e-16 0)
(3 -9.74336e-16 0)
(3 -9.59032e-16 0)
(3 9.47176e-16 0)
(3 1.82462e-15 0)
(3 3.13518e-15 0)
(3 4.50662e-15 0)
(3 -3.20239e-17 0)
(3 -6.66027e-16 0)
(3 -6.36442e-16 0)
(3 -3.95933e-16 0)
(3 -1.71797e-16 0)
(3 -1.05216e-16 0)
(3 -4.01407e-16 0)
(3 -4.49639e-16 0)
(3 -4.67014e-16 0)
(3 1.04617e-17 0)
(3 6.80913e-16 0)
(3 1.18009e-15 0)
(3 9.42698e-16 0)
(3 9.38843e-16 0)
(3 1.82079e-15 0)
(3 3.06952e-15 0)
(3 3.79164e-15 0)
(3 3.6916e-15 0)
(3 2.61203e-15 0)
(3 1.36501e-15 0)
(3 1.39052e-15 0)
(3 2.18428e-15 0)
(3 2.31667e-15 0)
(3 2.32127e-15 0)
(3 7.43993e-17 0)
(3 -2.48639e-17 0)
(3 -2.03029e-17 0)
(3 -4.06552e-16 0)
(3 -6.7032e-16 0)
(3 -4.84198e-16 0)
(3 2.79438e-16 0)
(3 6.91912e-16 0)
(3 4.67085e-16 0)
(3 1.44864e-16 0)
(3 3.57434e-16 0)
(3 5.36069e-16 0)
(3 1.19396e-15 0)
(3 3.16379e-15 0)
(3 4.82088e-15 0)
(3 4.41386e-15 0)
(3 3.11863e-15 0)
(3 2.40548e-15 0)
(3 2.38871e-15 0)
(3 2.17133e-15 0)
(3 5.85992e-16 0)
(3 -2.08745e-16 0)
(3 -7.34347e-16 0)
(3 -5.51998e-16 0)
(3 -1.29217e-16 0)
(3 -2.02522e-16 0)
(3 3.11387e-16 0)
(3 6.39708e-16 0)
(3 5.55477e-16 0)
(3 4.34135e-16 0)
(3 1.01895e-16 0)
(3 -2.77308e-16 0)
(3 -9.3003e-17 0)
(3 -2.89239e-16 0)
(3 -8.24539e-16 0)
(3 -8.53544e-16 0)
(3 -4.47745e-16 0)
(3 3.19666e-16 0)
(3 4.95548e-16 0)
(3 2.15254e-16 0)
(3 -4.71253e-16 0)
(3 -9.71346e-16 0)
(3 -1.22436e-15 0)
(3 -1.22629e-15 0)
(3 -1.37895e-15 0)
(3 -2.06576e-15 0)
(3 -2.18433e-15 0)
(3 -1.38075e-15 0)
(3 -1.91828e-16 0)
(3 1.40721e-16 0)
(3 -1.57933e-17 0)
(3 8.98628e-17 0)
(3 2.4165e-16 0)
(3 4.78477e-17 0)
(3 -2.53724e-16 0)
(3 -6.27438e-16 0)
(3 -3.65588e-16 0)
(3 -3.43311e-16 0)
(3 -3.6672e-16 0)
(3 -4.80547e-16 0)
(3 -1.11464e-15 0)
(3 -1.74564e-15 0)
(3 -1.79848e-15 0)
(3 -1.09527e-15 0)
(3 -1.35513e-15 0)
(3 -2.47177e-15 0)
(3 -2.74598e-15 0)
(3 -2.73801e-15 0)
(3 -2.38878e-15 0)
(3 -8.38465e-16 0)
(3 1.50752e-16 0)
(3 5.50497e-16 0)
(3 -8.261e-18 0)
(3 -7.5649e-17 0)
(3 -2.02773e-17 0)
(3 -1.27171e-16 0)
(3 1.78625e-16 0)
(3 3.55555e-16 0)
(3 3.18236e-16 0)
(3 -3.62875e-16 0)
(3 -5.75357e-16 0)
(3 -3.77766e-16 0)
(3 -6.12286e-17 0)
(3 4.73706e-16 0)
(3 6.22367e-16 0)
(3 3.35303e-16 0)
(3 5.87958e-16 0)
(3 3.56569e-17 0)
(3 -6.53934e-16 0)
(3 -9.75221e-16 0)
(3 -2.3022e-16 0)
(3 1.15182e-16 0)
(3 3.84785e-16 0)
(3 1.6407e-15 0)
(3 1.96933e-15 0)
(3 2.57968e-16 0)
(3 7.38104e-17 0)
(3 -4.27022e-16 0)
(3 -1.31598e-16 0)
(3 5.52047e-17 0)
(3 5.65824e-16 0)
(3 8.08762e-16 0)
(3 2.55372e-16 0)
(3 3.0676e-17 0)
(3 -5.00347e-16 0)
(3 -3.56252e-16 0)
(3 -4.3692e-16 0)
(3 1.56405e-16 0)
(3 7.61399e-16 0)
(3 1.34168e-15 0)
(3 9.49502e-16 0)
(3 4.23127e-17 0)
(3 -4.19785e-16 0)
(3 2.29114e-16 0)
(3 1.14431e-15 0)
(3 1.39805e-15 0)
(3 8.1458e-16 0)
(3 1.64138e-15 0)
(3 1.51361e-15 0)
(3 -3.63853e-16 0)
(2.93271 0.0156715 0)
(2.85121 0.0491674 0)
(2.74676 0.177621 0)
(2.68625 0.218283 0)
(2.56616 0.360807 0)
(2.50474 0.443486 0)
(2.42275 0.542098 0)
(2.34923 0.626596 0)
(2.31425 0.725281 0)
(2.25975 0.797887 0)
(2.24724 0.854919 0)
(2.27971 0.883987 0)
(2.32689 0.892561 0)
(2.3398 0.887367 0)
(2.34664 0.878962 0)
(2.34729 0.87013 0)
(2.34737 0.855703 0)
(2.34851 0.848908 0)
(2.34392 0.847822 0)
(2.33861 0.847251 0)
(2.33712 0.848052 0)
(2.33961 0.849465 0)
(2.3423 0.849474 0)
(2.34125 0.849144 0)
(2.9989 0.00108142 0)
(2.99038 0.010967 0)
(2.95776 0.0527629 0)
(2.90578 0.130755 0)
(2.7989 0.278235 0)
(2.68564 0.459847 0)
(2.5321 0.684553 0)
(2.37313 0.907572 0)
(2.23832 1.05969 0)
(2.17296 1.10355 0)
(2.13494 1.04672 0)
(2.18977 1.00145 0)
(2.25879 0.941338 0)
(2.29047 0.899873 0)
(2.32827 0.861602 0)
(2.34834 0.832379 0)
(2.35427 0.829786 0)
(2.36212 0.834072 0)
(2.35709 0.83832 0)
(2.3511 0.842919 0)
(2.34686 0.844185 0)
(2.34469 0.845603 0)
(2.34549 0.846504 0)
(2.3433 0.845704 0)
(3 -2.47671e-07 0)
(3.00002 -3.6534e-05 0)
(2.9999 0.00013005 0)
(2.99992 0.000108041 0)
(2.99857 0.00192572 0)
(2.99156 0.0125441 0)
(2.96606 0.0521404 0)
(2.89432 0.180373 0)
(2.79379 0.39109 0)
(2.57206 0.721087 0)
(2.44618 0.854818 0)
(2.34122 0.929744 0)
(2.29763 0.914847 0)
(2.29638 0.897329 0)
(2.30689 0.88845 0)
(2.33619 0.874769 0)
(2.3541 0.862996 0)
(2.36143 0.85169 0)
(2.36226 0.842069 0)
(2.36044 0.842529 0)
(2.35613 0.844621 0)
(2.35125 0.847972 0)
(2.34876 0.849203 0)
(2.34618 0.849434 0)
(3 -1.71452e-08 0)
(3 -1.18995e-06 0)
(3 -8.47748e-07 0)
(3 -4.94877e-07 0)
(3.00001 -8.09853e-06 0)
(2.99999 2.10564e-05 0)
(3.00008 -0.000153309 0)
(2.99917 0.001451 0)
(2.99166 0.0155904 0)
(2.88819 0.172106 0)
(2.7485 0.428964 0)
(2.47568 0.750086 0)
(2.31443 0.928094 0)
(2.27546 0.944208 0)
(2.28565 0.938195 0)
(2.2996 0.925489 0)
(2.32314 0.899386 0)
(2.3498 0.86569 0)
(2.36121 0.845709 0)
(2.36518 0.841103 0)
(2.36014 0.841673 0)
(2.35691 0.844147 0)
(2.35298 0.850269 0)
(2.35006 0.856411 0)
(3 -1.09977e-10 0)
(3 2.34845e-09 0)
(3 -2.0802e-08 0)
(3 -4.43754e-08 0)
(3 -5.34695e-07 0)
(3 -7.55839e-07 0)
(3 -5.71824e-06 0)
(3 -4.39342e-06 0)
(3.00002 -6.16479e-05 0)
(2.99922 0.000823534 0)
(2.98489 0.0229825 0)
(2.8897 0.146704 0)
(2.5874 0.530836 0)
(2.4776 0.704528 0)
(2.34915 0.855694 0)
(2.29206 0.902025 0)
(2.29789 0.898585 0)
(2.31993 0.8792 0)
(2.34098 0.862461 0)
(2.35331 0.858519 0)
(2.35844 0.843722 0)
(2.35855 0.840099 0)
(2.35673 0.841978 0)
(2.34966 0.852234 0)
(3 2.20319e-12 0)
(3 7.43366e-11 0)
(3 1.06963e-10 0)
(3 -3.24138e-10 0)
(3 3.61073e-10 0)
(3 -4.7114e-08 0)
(3 -9.72282e-08 0)
(3 -3.11145e-07 0)
(3 -6.45048e-06 0)
(3 -6.18762e-06 0)
(3.00002 -4.99262e-05 0)
(2.99874 0.00165176 0)
(2.96636 0.0423924 0)
(2.86095 0.199004 0)
(2.5111 0.615825 0)
(2.35764 0.790363 0)
(2.3215 0.848062 0)
(2.31031 0.875446 0)
(2.31108 0.879432 0)
(2.32661 0.867998 0)
(2.3416 0.847291 0)
(2.34864 0.832752 0)
(2.35155 0.833698 0)
(2.35003 0.838251 0)
(3 3.13399e-13 0)
(3 2.65314e-13 0)
(3 4.18651e-12 0)
(3 6.43803e-12 0)
(3 1.38895e-11 0)
(3 -4.06457e-10 0)
(3 9.10655e-12 0)
(3 -8.61152e-10 0)
(3 -1.70221e-08 0)
(3 -3.86372e-07 0)
(3 -5.93724e-06 0)
(3.00001 -1.41524e-05 0)
(2.99998 3.92791e-05 0)
(2.99701 0.00433797 0)
(2.92399 0.0946746 0)
(2.78138 0.297292 0)
(2.44793 0.684659 0)
(2.29572 0.873128 0)
(2.30385 0.859329 0)
(2.30927 0.857534 0)
(2.31204 0.855038 0)
(2.32549 0.845035 0)
(2.33669 0.839805 0)
(2.34131 0.840254 0)
(3 -3.45673e-17 0)
(3 -1.90685e-15 0)
(3 8.9243e-15 0)
(3 7.14664e-13 0)
(3 3.34678e-12 0)
(3 6.19867e-12 0)
(3 8.1366e-12 0)
(3 6.05937e-12 0)
(3 1.77592e-10 0)
(3 -1.17319e-09 0)
(3 -3.63111e-08 0)
(3 -1.04118e-06 0)
(3 -1.23478e-06 0)
(3.00001 -2.08728e-05 0)
(2.99939 0.000982008 0)
(2.99037 0.0161333 0)
(2.85435 0.184392 0)
(2.63693 0.470148 0)
(2.46028 0.698863 0)
(2.3045 0.883596 0)
(2.28003 0.876776 0)
(2.29875 0.860828 0)
(2.31717 0.846939 0)
(2.32411 0.84495 0)
(3 1.71399e-15 0)
(3 8.91555e-17 0)
(3 -1.58678e-15 0)
(3 2.66977e-15 0)
(3 8.67757e-14 0)
(3 7.36888e-13 0)
(3 2.19116e-12 0)
(3 2.40912e-12 0)
(3 1.92464e-11 0)
(3 1.78736e-11 0)
(3 3.20549e-10 0)
(3 -3.78618e-09 0)
(3 -8.35527e-08 0)
(3 -3.51394e-06 0)
(3 -2.64832e-06 0)
(3 -2.50205e-05 0)
(2.99631 0.00576339 0)
(2.96264 0.0565456 0)
(2.75789 0.33172 0)
(2.47729 0.685749 0)
(2.40866 0.768217 0)
(2.34236 0.826226 0)
(2.32282 0.841924 0)
(2.32116 0.837906 0)
(3 3.66375e-15 0)
(3 3.06812e-15 0)
(3 2.29441e-15 0)
(3 1.44885e-15 0)
(3 1.09292e-15 0)
(3 8.97203e-15 0)
(3 6.62311e-14 0)
(3 1.92351e-13 0)
(3 7.43612e-13 0)
(3 2.64813e-12 0)
(3 4.87236e-11 0)
(3 5.29861e-11 0)
(3 -4.35777e-10 0)
(3 -6.57482e-08 0)
(3 -4.90322e-07 0)
(3 -1.96528e-06 0)
(3.00001 -1.58557e-05 0)
(2.99968 0.000611058 0)
(2.98299 0.0243373 0)
(2.85968 0.194313 0)
(2.66727 0.501457 0)
(2.36358 0.853724 0)
(2.31842 0.847159 0)
(2.32342 0.82537 0)
(3 -1.39613e-16 0)
(3 5.92294e-17 0)
(3 5.36634e-16 0)
(3 -5.54759e-16 0)
(3 -1.45093e-15 0)
(3 -1.26479e-15 0)
(3 1.05393e-15 0)
(3 3.80653e-15 0)
(3 4.33847e-15 0)
(3 2.8202e-14 0)
(3 9.47603e-13 0)
(3 1.01398e-11 0)
(3 7.20535e-12 0)
(3 2.56677e-10 0)
(3 -1.02038e-08 0)
(3 -8.43808e-08 0)
(3 -2.12809e-06 0)
(3 -4.20348e-06 0)
(2.99993 0.000106121 0)
(2.99483 0.00952616 0)
(2.9429 0.0958424 0)
(2.66661 0.46843 0)
(2.51245 0.677614 0)
(2.36156 0.810765 0)
(3 -1.46641e-15 0)
(3 -7.7334e-16 0)
(3 -1.61884e-15 0)
(3 -2.38199e-15 0)
(3 -3.40598e-15 0)
(3 -3.5052e-15 0)
(3 -3.56793e-15 0)
(3 -3.19285e-15 0)
(3 -2.8197e-15 0)
(3 -2.58977e-15 0)
(3 -3.02295e-16 0)
(3 3.55058e-14 0)
(3 1.43584e-12 0)
(3 1.45899e-11 0)
(3 8.27659e-11 0)
(3 -3.65647e-10 0)
(3 -2.86877e-08 0)
(3 -8.02021e-07 0)
(3 -1.56827e-06 0)
(2.99999 5.15517e-06 0)
(2.99816 0.00343536 0)
(2.95492 0.06836 0)
(2.81662 0.315703 0)
(2.48728 0.713787 0)
(3 -5.02369e-16 0)
(3 -8.25562e-16 0)
(3 -1.34181e-15 0)
(3 -2.13653e-15 0)
(3 -2.27412e-15 0)
(3 -2.3336e-15 0)
(3 -2.47496e-15 0)
(3 -1.80552e-15 0)
(3 -2.01375e-15 0)
(3 -1.91472e-15 0)
(3 -1.72861e-15 0)
(3 -1.1344e-15 0)
(3 6.62958e-15 0)
(3 5.00762e-13 0)
(3 7.50042e-12 0)
(3 1.79545e-11 0)
(3 3.89076e-11 0)
(3 -2.00856e-08 0)
(3 -4.34773e-07 0)
(3 -6.51097e-07 0)
(3 -3.73869e-06 0)
(2.99912 0.00183598 0)
(2.98333 0.0327642 0)
(2.84318 0.240986 0)
(3 3.43526e-16 0)
(3 1.8233e-16 0)
(3 -2.22299e-17 0)
(3 2.92239e-16 0)
(3 3.60931e-16 0)
(3 7.39923e-16 0)
(3 9.97461e-16 0)
(3 1.19351e-15 0)
(3 4.92281e-17 0)
(3 -1.42173e-16 0)
(3 -1.83648e-16 0)
(3 5.6342e-17 0)
(3 -1.54342e-17 0)
(3 1.71234e-16 0)
(3 5.31276e-13 0)
(3 6.92089e-12 0)
(3 1.05585e-11 0)
(3 -6.86081e-11 0)
(3 -2.57291e-08 0)
(3 -2.22701e-07 0)
(3 -3.16667e-07 0)
(3 -1.7412e-06 0)
(2.99974 0.00050263 0)
(2.98904 0.0202322 0)
(3 -1.14767e-15 0)
(3 -2.55789e-17 0)
(3 1.20327e-15 0)
(3 1.48698e-15 0)
(3 1.85234e-15 0)
(3 1.01998e-15 0)
(3 2.44648e-16 0)
(3 2.9469e-16 0)
(3 -2.60431e-16 0)
(3 -4.494e-16 0)
(3 -8.8997e-16 0)
(3 -1.02261e-15 0)
(3 -9.63602e-16 0)
(3 -1.35247e-15 0)
(3 3.582e-16 0)
(3 4.25246e-13 0)
(3 2.95804e-12 0)
(3 2.62701e-12 0)
(3 -1.11084e-10 0)
(3 -1.45656e-08 0)
(3 -6.04122e-08 0)
(3 -1.77403e-07 0)
(3 -3.88959e-06 0)
(2.99996 8.04005e-05 0)
(3 -2.92411e-15 0)
(3 -1.28206e-15 0)
(3 3.32036e-16 0)
(3 5.12309e-16 0)
(3 -2.87115e-17 0)
(3 -6.59258e-16 0)
(3 -1.42041e-15 0)
(3 -2.23012e-15 0)
(3 -2.19075e-15 0)
(3 -1.94059e-15 0)
(3 -2.43471e-15 0)
(3 -3.12794e-15 0)
(3 -3.08506e-15 0)
(3 -2.67381e-15 0)
(3 -2.08376e-15 0)
(3 1.47813e-15 0)
(3 1.43729e-13 0)
(3 7.55967e-13 0)
(3 9.58663e-13 0)
(3 -1.50193e-10 0)
(3 -1.02877e-09 0)
(3 -5.72919e-08 0)
(3 -7.63261e-07 0)
(3 -4.42744e-07 0)
(3 -4.36133e-16 0)
(3 -4.91037e-16 0)
(3 -3.35978e-16 0)
(3 -5.9022e-16 0)
(3 -6.07829e-16 0)
(3 -8.16576e-16 0)
(3 -1.09695e-15 0)
(3 -1.50343e-15 0)
(3 -1.75305e-15 0)
(3 -2.01872e-15 0)
(3 -2.03694e-15 0)
(3 -2.66714e-15 0)
(3 -2.5447e-15 0)
(3 -1.65374e-15 0)
(3 -7.43477e-16 0)
(3 -4.89848e-15 0)
(3 -1.30663e-13 0)
(3 -9.40881e-13 0)
(3 -3.66262e-13 0)
(3 8.17084e-11 0)
(3 3.99733e-09 0)
(3 2.76713e-08 0)
(3 1.8122e-08 0)
(3 2.07783e-06 0)
(3 1.76589e-16 0)
(3 -1.57199e-15 0)
(3 -2.18639e-15 0)
(3 -1.34385e-15 0)
(3 -3.92896e-16 0)
(3 -1.14712e-16 0)
(3 9.04414e-16 0)
(3 1.79992e-15 0)
(3 1.2542e-15 0)
(3 5.82219e-16 0)
(3 4.77965e-16 0)
(3 4.45175e-16 0)
(3 1.93383e-16 0)
(3 6.887e-16 0)
(3 -2.45437e-15 0)
(3 -4.49882e-13 0)
(3 -2.77633e-12 0)
(3 -2.91706e-12 0)
(3 8.29172e-11 0)
(3 1.51493e-08 0)
(3 5.2415e-08 0)
(3 4.48957e-07 0)
(3 -5.68392e-06 0)
(3.00001 5.88437e-05 0)
(3 -1.62196e-15 0)
(3 -2.33096e-15 0)
(3 -3.3516e-15 0)
(3 -3.13013e-15 0)
(3 -1.63775e-15 0)
(3 -2.87938e-16 0)
(3 1.03154e-15 0)
(3 1.1771e-15 0)
(3 1.28884e-15 0)
(3 1.59443e-15 0)
(3 2.09603e-15 0)
(3 3.0109e-15 0)
(3 3.00484e-15 0)
(3 1.6154e-15 0)
(3 -5.64951e-13 0)
(3 -6.7167e-12 0)
(3 -9.70916e-12 0)
(3 3.19708e-11 0)
(3 1.6667e-08 0)
(3 1.6799e-07 0)
(3 2.71298e-07 0)
(3 3.06012e-06 0)
(2.99963 -0.000780193 0)
(2.99343 -0.0149907 0)
(3 -2.06834e-15 0)
(3 -2.40143e-15 0)
(3 -2.51008e-15 0)
(3 -3.91017e-15 0)
(3 -3.47414e-15 0)
(3 -2.32317e-15 0)
(3 -1.521e-15 0)
(3 -1.64099e-15 0)
(3 -7.28172e-16 0)
(3 -2.724e-16 0)
(3 1.7234e-15 0)
(3 8.16222e-16 0)
(3 -5.46996e-15 0)
(3 -5.43659e-13 0)
(3 -7.789e-12 0)
(3 -1.85205e-11 0)
(3 -8.75271e-12 0)
(3 1.86865e-08 0)
(3 4.37605e-07 0)
(3 5.48993e-07 0)
(3 4.31412e-06 0)
(2.9993 -0.00141032 0)
(2.97904 -0.0388666 0)
(2.87257 -0.223111 0)
(3 -1.16606e-15 0)
(3 -1.62827e-15 0)
(3 -1.38761e-15 0)
(3 -2.41089e-15 0)
(3 -3.07518e-15 0)
(3 -2.49535e-15 0)
(3 -6.90511e-16 0)
(3 -6.92526e-17 0)
(3 -1.20107e-15 0)
(3 -3.28495e-16 0)
(3 -5.17715e-15 0)
(3 -3.92123e-14 0)
(3 -1.451e-12 0)
(3 -1.63102e-11 0)
(3 -9.44635e-11 0)
(3 5.31504e-10 0)
(3 2.11187e-08 0)
(3 1.06723e-06 0)
(3 1.36876e-06 0)
(2.99999 -5.46634e-06 0)
(2.99783 -0.00363046 0)
(2.96049 -0.0640513 0)
(2.80685 -0.320943 0)
(2.51518 -0.703864 0)
(3 -1.18915e-15 0)
(3 -8.35726e-16 0)
(3 -1.1732e-15 0)
(3 -1.11172e-15 0)
(3 -5.51856e-16 0)
(3 2.28632e-16 0)
(3 5.81922e-16 0)
(3 1.44315e-15 0)
(3 -3.9922e-15 0)
(3 -2.8568e-14 0)
(3 -9.35923e-13 0)
(3 -1.01796e-11 0)
(3 -7.1513e-12 0)
(3 -2.58008e-10 0)
(3 1.03494e-08 0)
(3 8.87429e-08 0)
(3 1.94178e-06 0)
(3 4.86869e-06 0)
(2.9999 -0.000157937 0)
(2.99556 -0.00816887 0)
(2.92918 -0.108064 0)
(2.68537 -0.444972 0)
(2.53044 -0.663976 0)
(2.35878 -0.84475 0)
(3 -1.28004e-16 0)
(3 -8.37285e-17 0)
(3 -9.72266e-16 0)
(3 -1.50104e-15 0)
(3 2.94682e-17 0)
(3 -8.31936e-15 0)
(3 -6.81568e-14 0)
(3 -1.91512e-13 0)
(3 -7.40299e-13 0)
(3 -2.63454e-12 0)
(3 -4.88137e-11 0)
(3 -5.28102e-11 0)
(3 4.34887e-10 0)
(3 6.56615e-08 0)
(3 4.90777e-07 0)
(3 1.98522e-06 0)
(3.00001 1.51688e-05 0)
(2.99969 -0.000585766 0)
(2.98242 -0.0255619 0)
(2.86829 -0.184361 0)
(2.64062 -0.519444 0)
(2.36998 -0.835707 0)
(2.3382 -0.84191 0)
(2.32443 -0.831217 0)
(3 9.72319e-16 0)
(3 2.31449e-16 0)
(3 1.25582e-15 0)
(3 -3.50453e-15 0)
(3 -8.9185e-14 0)
(3 -7.41565e-13 0)
(3 -2.19681e-12 0)
(3 -2.4105e-12 0)
(3 -1.92133e-11 0)
(3 -1.78184e-11 0)
(3 -3.20989e-10 0)
(3 3.73637e-09 0)
(3 8.34669e-08 0)
(3 3.51339e-06 0)
(3 2.64648e-06 0)
(3 2.47785e-05 0)
(2.99632 -0.00574897 0)
(2.96257 -0.0566208 0)
(2.75748 -0.331895 0)
(2.48012 -0.682678 0)
(2.4044 -0.772082 0)
(2.34143 -0.825496 0)
(2.32541 -0.841276 0)
(2.32179 -0.839659 0)
(3 3.38984e-17 0)
(3 2.12193e-15 0)
(3 -1.09904e-14 0)
(3 -7.18302e-13 0)
(3 -3.35489e-12 0)
(3 -6.20581e-12 0)
(3 -8.14327e-12 0)
(3 -6.0653e-12 0)
(3 -1.77524e-10 0)
(3 1.18026e-09 0)
(3 3.62633e-08 0)
(3 1.03618e-06 0)
(3 1.23364e-06 0)
(3.00001 2.08836e-05 0)
(2.99939 -0.000981978 0)
(2.99038 -0.016138 0)
(2.85436 -0.184354 0)
(2.63673 -0.470381 0)
(2.46045 -0.698427 0)
(2.3049 -0.883568 0)
(2.27914 -0.877213 0)
(2.29792 -0.860849 0)
(2.31709 -0.845976 0)
(2.32441 -0.844791 0)
(3 -3.12765e-13 0)
(3 -2.64221e-13 0)
(3 -4.18475e-12 0)
(3 -6.43239e-12 0)
(3 -1.38812e-11 0)
(3 4.06418e-10 0)
(3 -8.88751e-12 0)
(3 8.6004e-10 0)
(3 1.70683e-08 0)
(3 3.85288e-07 0)
(3 5.97974e-06 0)
(3.00001 1.40804e-05 0)
(2.99998 -3.92903e-05 0)
(2.99701 -0.00433714 0)
(2.92399 -0.0946923 0)
(2.78165 -0.297149 0)
(2.44744 -0.685157 0)
(2.29591 -0.872846 0)
(2.30397 -0.859174 0)
(2.30934 -0.857587 0)
(2.31175 -0.85507 0)
(2.32529 -0.844839 0)
(2.33661 -0.839378 0)
(2.34146 -0.840259 0)
(3 -2.20235e-12 0)
(3 -7.43447e-11 0)
(3 -1.0697e-10 0)
(3 3.2417e-10 0)
(3 -3.61026e-10 0)
(3 4.71133e-08 0)
(3 9.72286e-08 0)
(3 3.1115e-07 0)
(3 6.45035e-06 0)
(3 6.18762e-06 0)
(3.00002 4.99571e-05 0)
(2.99874 -0.00165203 0)
(2.96636 -0.0423909 0)
(2.86093 -0.199008 0)
(2.5111 -0.615811 0)
(2.35771 -0.790299 0)
(2.32147 -0.848119 0)
(2.31025 -0.87547 0)
(2.31112 -0.879365 0)
(2.3266 -0.867994 0)
(2.3415 -0.847374 0)
(2.3486 -0.832668 0)
(2.35151 -0.833519 0)
(2.35003 -0.838338 0)
(3 1.09957e-10 0)
(3 -2.34864e-09 0)
(3 2.08049e-08 0)
(3 4.4378e-08 0)
(3 5.34693e-07 0)
(3 7.55834e-07 0)
(3 5.71833e-06 0)
(3 4.3936e-06 0)
(3.00002 6.16344e-05 0)
(2.99922 -0.000823339 0)
(2.98489 -0.0229842 0)
(2.88971 -0.146695 0)
(2.5874 -0.530832 0)
(2.47755 -0.704559 0)
(2.34918 -0.855651 0)
(2.29208 -0.90201 0)
(2.2979 -0.898593 0)
(2.31992 -0.879245 0)
(2.34099 -0.862409 0)
(2.35328 -0.858502 0)
(2.35843 -0.84376 0)
(2.35854 -0.840113 0)
(2.35673 -0.841971 0)
(2.34966 -0.85225 0)
(3 1.71442e-08 0)
(3 1.19001e-06 0)
(3 8.47844e-07 0)
(3 4.94897e-07 0)
(3.00001 8.0985e-06 0)
(2.99999 -2.10566e-05 0)
(3.00008 0.000153307 0)
(2.99917 -0.00145098 0)
(2.99166 -0.0155908 0)
(2.88819 -0.1721 0)
(2.74847 -0.428984 0)
(2.47573 -0.750043 0)
(2.3144 -0.928125 0)
(2.27545 -0.944219 0)
(2.28565 -0.938187 0)
(2.29961 -0.925474 0)
(2.32314 -0.89939 0)
(2.34975 -0.865747 0)
(2.36125 -0.845651 0)
(2.3652 -0.841077 0)
(2.36014 -0.8417 0)
(2.35691 -0.844164 0)
(2.35296 -0.850272 0)
(2.35005 -0.856407 0)
(3 2.47604e-07 0)
(3.00002 3.6534e-05 0)
(2.9999 -0.000130051 0)
(2.99992 -0.000108049 0)
(2.99857 -0.0019257 0)
(2.99156 -0.0125441 0)
(2.96606 -0.0521402 0)
(2.89432 -0.180374 0)
(2.79379 -0.39109 0)
(2.57206 -0.721084 0)
(2.44618 -0.854822 0)
(2.34122 -0.929739 0)
(2.29764 -0.914848 0)
(2.29638 -0.897331 0)
(2.30689 -0.888449 0)
(2.3362 -0.874756 0)
(2.35409 -0.863016 0)
(2.36142 -0.851701 0)
(2.36227 -0.842058 0)
(2.36045 -0.842513 0)
(2.35613 -0.844627 0)
(2.35125 -0.847988 0)
(2.34875 -0.849207 0)
(2.34618 -0.849428 0)
(2.9989 -0.00108144 0)
(2.99038 -0.0109669 0)
(2.95776 -0.0527628 0)
(2.90578 -0.130756 0)
(2.7989 -0.278235 0)
(2.68564 -0.459847 0)
(2.5321 -0.684552 0)
(2.37313 -0.907573 0)
(2.23832 -1.05969 0)
(2.17296 -1.10355 0)
(2.13495 -1.04672 0)
(2.18976 -1.00144 0)
(2.25879 -0.941337 0)
(2.29047 -0.899873 0)
(2.32826 -0.861603 0)
(2.34834 -0.832375 0)
(2.35427 -0.829793 0)
(2.36212 -0.834078 0)
(2.35709 -0.838318 0)
(2.3511 -0.842914 0)
(2.34686 -0.844189 0)
(2.34468 -0.845608 0)
(2.34549 -0.846504 0)
(2.3433 -0.845703 0)
(2.93271 -0.0156728 0)
(2.85121 -0.0491646 0)
(2.74676 -0.177622 0)
(2.68625 -0.218284 0)
(2.56616 -0.360806 0)
(2.50474 -0.443486 0)
(2.42275 -0.542098 0)
(2.34923 -0.626595 0)
(2.31425 -0.725281 0)
(2.25975 -0.797887 0)
(2.24725 -0.854919 0)
(2.27971 -0.88399 0)
(2.32689 -0.892559 0)
(2.3398 -0.887368 0)
(2.34664 -0.878962 0)