/*--------------------------------*- C++ -*----------------------------------*\
  =========                 |
  \\      /  F ield         | OpenFOAM: The Open Source CFD Toolbox
   \\    /   O peration     | Website:  https://openfoam.org
    \\  /    A nd           | Version:  7
     \\/     M anipulation  |
\*---------------------------------------------------------------------------*/
FoamFile
{
    version     2.0;
    format      ascii;
    class       volVectorField;
    location    "3.4";
    object      U;
}
// * * * * * * * * * * * * * * * * * * * * * * * * * * * * * * * * * * * * * //

dimensions      [0 1 -1 0 0 0 0];

internalField   nonuniform List<vector> 
73728
(
(3 -1.36286e-16 0)
(3 2.44018e-16 0)
(3 3.35074e-16 0)
(3 1.91161e-16 0)
(3 2.33771e-16 0)
(3 3.22438e-16 0)
(3 3.88489e-16 0)
(3 7.78666e-16 0)
(3 5.4946e-16 0)
(3 2.61308e-16 0)
(3 -3.16024e-16 0)
(3 -9.13017e-16 0)
(3 -4.06171e-16 0)
(3 1.91321e-16 0)
(3 1.8864e-17 0)
(3 -9.87046e-17 0)
(3 4.83871e-16 0)
(3 6.44527e-16 0)
(3 3.84475e-16 0)
(3 4.03921e-16 0)
(3 -6.78358e-16 0)
(3 -7.53374e-16 0)
(3 -1.14557e-15 0)
(3 -1.37031e-15 0)
(3 -1.37918e-15 0)
(3 -1.13197e-15 0)
(3 -8.44449e-16 0)
(3 -3.83593e-16 0)
(3 -5.13487e-16 0)
(3 -6.57327e-16 0)
(3 1.28131e-16 0)
(3 2.40454e-16 0)
(3 -2.13383e-16 0)
(3 -1.00816e-15 0)
(3 -8.08328e-16 0)
(3 2.24621e-16 0)
(3 5.192e-16 0)
(3 9.38152e-16 0)
(3 1.54684e-15 0)
(3 1.61694e-15 0)
(3 1.52906e-15 0)
(3 1.03867e-15 0)
(3 4.63572e-16 0)
(3 2.39963e-16 0)
(3 1.27702e-17 0)
(3 3.76012e-16 0)
(3 7.72816e-16 0)
(3 7.14152e-16 0)
(3 4.13157e-16 0)
(3 6.88889e-16 0)
(3 4.51316e-16 0)
(3 -9.53455e-16 0)
(3 -2.09101e-15 0)
(3 -1.40206e-15 0)
(3 2.97187e-16 0)
(3 1.76011e-16 0)
(3 -2.73786e-16 0)
(3 -4.34271e-16 0)
(3 -6.73796e-16 0)
(3 -1.68163e-15 0)
(3 -1.00645e-15 0)
(3 -3.4764e-16 0)
(3 1.32242e-16 0)
(3 7.59179e-16 0)
(3 1.31175e-15 0)
(3 7.15685e-17 0)
(3 -4.2597e-16 0)
(3 -7.50878e-16 0)
(3 -7.88194e-16 0)
(3 -2.98049e-16 0)
(3 -4.62032e-17 0)
(3 -2.14932e-16 0)
(3 -7.84895e-16 0)
(3 -1.16436e-15 0)
(3 -9.41198e-16 0)
(3 -6.24521e-16 0)
(3 -2.93675e-16 0)
(3 -1.11263e-15 0)
(3 -1.58537e-15 0)
(3 -1.58499e-15 0)
(3 -1.4333e-15 0)
(3 -1.43224e-15 0)
(3 -1.3191e-15 0)
(3 -5.01907e-16 0)
(3 1.50453e-18 0)
(3 -1.71374e-16 0)
(3 -1.99632e-16 0)
(3 -4.86997e-16 0)
(3 -1.8127e-16 0)
(3 3.68016e-16 0)
(3 1.57975e-16 0)
(3 6.40726e-16 0)
(3 5.21826e-16 0)
(3 -8.52472e-16 0)
(3 -2.12078e-15 0)
(3 -1.39413e-15 0)
(3 -6.01416e-17 0)
(3 3.96226e-16 0)
(3 6.42918e-16 0)
(3 8.02142e-16 0)
(3 1.00483e-15 0)
(3 1.26208e-15 0)
(3 8.05203e-16 0)
(3 1.08532e-15 0)
(3 1.01928e-15 0)
(3 5.42855e-16 0)
(3 -7.23487e-16 0)
(3 -1.61128e-15 0)
(3 -1.26757e-15 0)
(3 -3.20055e-16 0)
(3 9.89866e-17 0)
(3 -3.04671e-17 0)
(3 9.2335e-17 0)
(3 -3.00848e-16 0)
(3 -3.25602e-16 0)
(3 -3.2144e-16 0)
(3 -1.12366e-15 0)
(3 -1.53304e-15 0)
(3 -1.39129e-15 0)
(3 -1.59338e-15 0)
(3 -2.05776e-15 0)
(3 -2.63312e-15 0)
(3 -2.90789e-15 0)
(3 -1.93459e-15 0)
(3 -1.53624e-15 0)
(3 -1.28007e-15 0)
(3 -6.55673e-16 0)
(3 3.65563e-18 0)
(3 -3.21846e-16 0)
(3 -9.87831e-16 0)
(3 -1.13489e-15 0)
(3 -7.62145e-16 0)
(3 -1.7171e-16 0)
(3 3.51588e-16 0)
(3 1.42058e-16 0)
(3 -3.39232e-17 0)
(3 1.89546e-16 0)
(3 8.19058e-17 0)
(3 -4.43308e-16 0)
(3 -1.05423e-15 0)
(3 -1.02332e-15 0)
(3 2.61506e-17 0)
(3 1.77972e-16 0)
(3 -3.47444e-16 0)
(3 -5.46335e-16 0)
(3 -5.09693e-16 0)
(3 -4.49711e-16 0)
(3 -7.39918e-16 0)
(3 -1.03399e-15 0)
(3 -5.47005e-16 0)
(3 1.08613e-15 0)
(3 1.79761e-15 0)
(3 7.15056e-16 0)
(3 2.99125e-16 0)
(3 -9.77317e-16 0)
(3 -1.31114e-15 0)
(3 -6.63581e-16 0)
(3 4.2928e-16 0)
(3 1.93494e-15 0)
(3 3.10365e-15 0)
(3 2.34246e-15 0)
(3 2.151e-17 0)
(3 -8.24439e-16 0)
(3 -6.80956e-16 0)
(3 -6.28744e-16 0)
(3 3.20469e-16 0)
(3 6.28972e-16 0)
(3 2.416e-16 0)
(3 -6.48611e-16 0)
(3 -1.36914e-15 0)
(3 -1.82707e-15 0)
(3 -1.89755e-15 0)
(3 -1.22165e-15 0)
(3 -8.85071e-16 0)
(3 -1.69301e-15 0)
(3 -1.54825e-15 0)
(3 -8.30471e-16 0)
(3 -1.07439e-15 0)
(3 -1.06503e-16 0)
(3 8.87468e-16 0)
(3 7.76097e-16 0)
(3 2.63837e-16 0)
(3 3.41923e-16 0)
(3 1.4275e-16 0)
(3 8.56849e-16 0)
(3 1.58493e-15 0)
(3 1.64909e-15 0)
(3 1.03507e-15 0)
(3 6.88988e-16 0)
(3 -2.27527e-16 0)
(3 -1.43754e-15 0)
(3 -8.87282e-16 0)
(3 1.06763e-16 0)
(3 4.18944e-17 0)
(3 9.47134e-17 0)
(3 7.17418e-16 0)
(3 1.20065e-15 0)
(3 8.65617e-16 0)
(3 1.31704e-16 0)
(3 4.33119e-16 0)
(3 9.29082e-16 0)
(3 5.93405e-16 0)
(3 -7.69463e-16 0)
(3 -1.14076e-15 0)
(3 -1.52065e-15 0)
(3 -1.7444e-15 0)
(3 -1.45714e-15 0)
(3 -1.32792e-15 0)
(3 -1.60964e-15 0)
(3 -1.72557e-15 0)
(3 -1.54755e-15 0)
(3 -1.80142e-15 0)
(3 -1.64947e-15 0)
(3 -2.37292e-15 0)
(3 -1.97478e-15 0)
(3 -1.17074e-15 0)
(3 -6.21324e-16 0)
(3 -1.26133e-15 0)
(3 -1.64296e-15 0)
(3 -1.5211e-15 0)
(3 -5.29662e-16 0)
(3 2.65259e-17 0)
(3 -4.98877e-16 0)
(3 -2.72189e-17 0)
(3 8.3735e-17 0)
(3 -2.11082e-17 0)
(3 -1.67474e-16 0)
(3 -6.76602e-16 0)
(3 -1.0146e-15 0)
(3 -4.70811e-16 0)
(3 -3.02937e-16 0)
(3 -1.79565e-16 0)
(3 7.49965e-17 0)
(3 -6.65013e-16 0)
(3 -1.2444e-15 0)
(3 -1.49834e-15 0)
(3 -1.07956e-15 0)
(3 -1.78059e-16 0)
(3 4.07387e-17 0)
(3 4.72873e-16 0)
(3 6.11803e-16 0)
(3 9.47235e-16 0)
(3 1.00474e-15 0)
(3 8.50988e-16 0)
(3 4.59802e-16 0)
(3 3.76279e-16 0)
(3 2.14624e-16 0)
(3 2.00695e-16 0)
(3 -4.15543e-16 0)
(3 -1.46719e-15 0)
(3 -1.76718e-15 0)
(3 -2.78513e-16 0)
(3 1.06239e-15 0)
(3 1.69314e-15 0)
(3 2.11767e-15 0)
(3 2.12791e-15 0)
(3 1.62607e-15 0)
(3 1.02544e-15 0)
(3 -5.2601e-16 0)
(3 -9.48038e-16 0)
(3 -8.97287e-16 0)
(3 -1.53543e-16 0)
(3 8.75109e-16 0)
(3 9.91457e-16 0)
(3 5.42453e-16 0)
(3 -4.80026e-17 0)
(3 -5.64468e-16 0)
(3 -8.87832e-16 0)
(3 -2.74956e-16 0)
(3 9.22882e-18 0)
(3 -8.4003e-16 0)
(3 -4.58603e-16 0)
(3 9.81687e-16 0)
(3 1.77774e-15 0)
(3 1.63545e-15 0)
(3 1.1505e-15 0)
(3 8.16181e-17 0)
(3 -8.06144e-17 0)
(3 2.81152e-17 0)
(3 4.42759e-16 0)
(3 3.37486e-16 0)
(3 1.21421e-15 0)
(3 1.9172e-15 0)
(3 1.49141e-15 0)
(3 1.20162e-15 0)
(3 1.2618e-15 0)
(3 -1.82783e-18 0)
(3 -1.41915e-15 0)
(3 -1.26053e-16 0)
(3 -5.99418e-16 0)
(3 -5.03573e-16 0)
(3 2.44417e-17 0)
(3 1.29958e-15 0)
(3 1.11925e-15 0)
(3 1.00965e-15 0)
(3 -1.24392e-16 0)
(3 -7.225e-16 0)
(3 -1.09414e-15 0)
(3 1.73608e-16 0)
(3 2.55706e-16 0)
(3 -1.22529e-17 0)
(3 -6.25744e-16 0)
(3 -1.62969e-15 0)
(3 -1.76248e-15 0)
(3 -1.64562e-15 0)
(3 -1.90441e-15 0)
(3 -1.86625e-15 0)
(3 -1.64193e-15 0)
(3 3.7597e-16 0)
(3 8.0502e-16 0)
(3 -2.5177e-16 0)
(3 -1.53647e-16 0)
(3 7.48199e-16 0)
(3 -9.09497e-16 0)
(3 -2.04959e-15 0)
(3 -2.52889e-15 0)
(3 -1.37326e-15 0)
(3 -5.47784e-16 0)
(3 -1.08536e-16 0)
(3 7.49145e-17 0)
(3 1.07464e-15 0)
(3 2.36588e-15 0)
(3 2.04478e-15 0)
(3 1.05196e-15 0)
(3 1.04127e-15 0)
(3 7.50196e-16 0)
(3 1.39356e-15 0)
(3 2.10148e-15 0)
(3 2.96489e-15 0)
(3 2.49887e-15 0)
(3 4.19805e-16 0)
(3 -1.46652e-16 0)
(3 -3.03107e-16 0)
(3 -1.02646e-16 0)
(3 7.74059e-16 0)
(3 1.06283e-15 0)
(3 1.23617e-15 0)
(3 1.90578e-15 0)
(3 1.97451e-15 0)
(3 5.57035e-16 0)
(3 3.34336e-16 0)
(3 -4.90241e-16 0)
(3 -1.2349e-15 0)
(3 -1.3708e-15 0)
(3 -3.99372e-16 0)
(3 -2.81237e-16 0)
(3 2.41903e-16 0)
(3 2.34459e-16 0)
(3 -7.80802e-16 0)
(3 -7.61697e-16 0)
(3 -1.49001e-16 0)
(3 1.3863e-17 0)
(3 6.86537e-16 0)
(3 5.04881e-16 0)
(3 6.33082e-17 0)
(3 -3.75325e-16 0)
(3 2.26901e-16 0)
(3 8.1068e-16 0)
(3 3.89542e-16 0)
(3 9.94258e-16 0)
(3 1.02991e-15 0)
(3 6.85661e-16 0)
(3 6.79498e-16 0)
(3 -4.23957e-17 0)
(3 -1.19831e-15 0)
(3 -9.44454e-16 0)
(3 -5.4449e-17 0)
(3 -3.19925e-17 0)
(3 -7.79269e-17 0)
(3 3.76427e-16 0)
(3 1.18719e-15 0)
(3 5.33436e-16 0)
(3 -1.66762e-16 0)
(3 -4.87451e-16 0)
(3 -1.04352e-16 0)
(3 4.82644e-16 0)
(3 5.36822e-16 0)
(3 1.27478e-15 0)
(3 9.81467e-16 0)
(3 6.12165e-16 0)
(3 -5.4599e-17 0)
(3 -2.64806e-16 0)
(3 -1.03641e-15 0)
(3 -1.46985e-15 0)
(3 -4.41779e-18 0)
(3 3.73722e-17 0)
(3 2.23098e-16 0)
(3 4.34184e-16 0)
(3 9.84664e-16 0)
(3 1.54124e-15 0)
(3 1.16683e-15 0)
(3 -2.98189e-16 0)
(3 -1.27031e-15 0)
(3 -1.14374e-15 0)
(3 -5.5686e-16 0)
(3 -4.00271e-16 0)
(3 -1.43407e-16 0)
(3 -4.51791e-17 0)
(3 -2.85459e-16 0)
(3 -6.30135e-16 0)
(3 -7.64508e-16 0)
(3 -2.12792e-15 0)
(3 -3.05397e-15 0)
(3 -2.03523e-15 0)
(3 -4.88568e-16 0)
(3 9.03054e-16 0)
(3 3.87588e-16 0)
(3 -5.23034e-16 0)
(3 -1.92686e-16 0)
(3 1.71484e-16 0)
(3 5.68361e-16 0)
(3 1.22945e-15 0)
(3 -3.14503e-16 0)
(3 -1.43764e-15 0)
(3 -1.84701e-15 0)
(3 -1.90951e-15 0)
(3 -9.50235e-16 0)
(3 9.95264e-16 0)
(3 3.55214e-15 0)
(3 4.23728e-15 0)
(3 2.0632e-15 0)
(3 6.32527e-16 0)
(3 1.0793e-15 0)
(3 1.62123e-15 0)
(3 1.60191e-15 0)
(3 1.63261e-15 0)
(3 1.28655e-15 0)
(3 3.38941e-16 0)
(3 5.72214e-16 0)
(3 7.26589e-16 0)
(3 1.33783e-15 0)
(3 1.05971e-15 0)
(3 7.50278e-16 0)
(3 7.01907e-16 0)
(3 9.79852e-16 0)
(3 1.08106e-15 0)
(3 4.21825e-16 0)
(3 -6.22555e-16 0)
(3 -8.82032e-16 0)
(3 2.02371e-16 0)
(3 1.47442e-15 0)
(3 1.04892e-15 0)
(3 2.73852e-17 0)
(3 -1.62348e-15 0)
(3 -1.86789e-15 0)
(3 -1.10025e-15 0)
(3 -3.4424e-16 0)
(3 1.49234e-16 0)
(3 3.86184e-16 0)
(3 3.02474e-16 0)
(3 1.07769e-15 0)
(3 2.42707e-17 0)
(3 -1.06748e-15 0)
(3 -8.02532e-16 0)
(3 -6.31387e-16 0)
(3 5.25418e-17 0)
(3 4.60674e-16 0)
(3 7.66581e-16 0)
(3 5.10117e-16 0)
(3 8.97368e-16 0)
(3 1.41733e-15 0)
(3 1.14836e-15 0)
(3 1.57712e-15 0)
(3 1.29581e-15 0)
(3 7.5463e-16 0)
(3 7.16237e-16 0)
(3 4.28267e-16 0)
(3 4.9959e-16 0)
(3 4.19606e-16 0)
(3 2.18676e-16 0)
(3 2.44187e-16 0)
(3 1.09169e-15 0)
(3 1.90965e-15 0)
(3 2.01289e-15 0)
(3 1.13914e-15 0)
(3 7.93006e-16 0)
(3 1.53238e-16 0)
(3 -3.85794e-16 0)
(3 -3.8383e-16 0)
(3 -5.59776e-16 0)
(3 -3.97697e-17 0)
(3 2.1586e-16 0)
(3 5.61021e-16 0)
(3 8.17622e-16 0)
(3 8.61403e-16 0)
(3 9.32312e-16 0)
(3 1.93407e-16 0)
(3 -2.51173e-16 0)
(3 -6.89414e-16 0)
(3 -8.47528e-16 0)
(3 -1.04351e-15 0)
(3 -1.03145e-15 0)
(3 -1.33827e-15 0)
(3 -1.45721e-15 0)
(3 -5.31229e-16 0)
(3 -4.79408e-16 0)
(3 -8.89796e-16 0)
(3 -1.70647e-15 0)
(3 -2.10598e-15 0)
(3 -1.56505e-15 0)
(3 -8.20866e-16 0)
(3 -9.07647e-16 0)
(3 -2.45194e-16 0)
(3 6.83177e-16 0)
(3 1.15727e-15 0)
(3 2.94762e-15 0)
(3 3.9091e-15 0)
(3 3.40726e-15 0)
(3 2.14689e-15 0)
(3 1.06097e-15 0)
(3 -5.92821e-16 0)
(3 -1.06348e-15 0)
(3 -9.5483e-16 0)
(3 -1.78311e-16 0)
(3 9.43149e-16 0)
(3 1.35682e-15 0)
(3 6.93427e-16 0)
(3 5.30379e-16 0)
(3 6.43227e-16 0)
(3 2.808e-16 0)
(3 4.68999e-16 0)
(3 4.9022e-16 0)
(3 5.72901e-16 0)
(3 7.27352e-16 0)
(3 5.47068e-16 0)
(3 2.19761e-16 0)
(3 5.4742e-16 0)
(3 3.5539e-16 0)
(3 3.71505e-16 0)
(3 9.72212e-19 0)
(3 1.78425e-16 0)
(3 9.36166e-16 0)
(3 2.41316e-16 0)
(3 5.32628e-16 0)
(3 6.18281e-16 0)
(3 -3.91227e-16 0)
(3 -1.03873e-15 0)
(3 -1.62709e-15 0)
(3 -2.32252e-15 0)
(3 -2.63141e-15 0)
(3 -1.69099e-15 0)
(3 4.01677e-16 0)
(3 6.6522e-16 0)
(3 1.58812e-15 0)
(3 1.76016e-15 0)
(3 2.10618e-15 0)
(3 1.99738e-15 0)
(3 5.68551e-16 0)
(3 -5.35027e-16 0)
(3 -1.9178e-16 0)
(3 6.99553e-16 0)
(3 9.41549e-16 0)
(3 7.07288e-16 0)
(3 1.02109e-15 0)
(3 1.76516e-15 0)
(3 2.66576e-15 0)
(3 2.75413e-15 0)
(3 1.67734e-15 0)
(3 1.04055e-15 0)
(3 1.39649e-15 0)
(3 2.26308e-15 0)
(3 2.04346e-15 0)
(3 -7.56546e-16 0)
(3 -1.49562e-15 0)
(3 -1.77935e-15 0)
(3 -1.27478e-15 0)
(3 -1.43295e-15 0)
(3 -8.61105e-16 0)
(3 5.61676e-16 0)
(3 1.00156e-15 0)
(3 1.42818e-15 0)
(3 1.23144e-15 0)
(3 5.14231e-16 0)
(3 -3.75843e-16 0)
(3 -7.87379e-16 0)
(3 -1.01265e-15 0)
(3 -3.26658e-17 0)
(3 2.86503e-17 0)
(3 3.16051e-16 0)
(3 4.77245e-16 0)
(3 2.21441e-16 0)
(3 2.5568e-16 0)
(3 3.05719e-16 0)
(3 9.47592e-17 0)
(3 -2.24294e-16 0)
(3 -1.27151e-15 0)
(3 -1.11722e-15 0)
(3 -1.49189e-16 0)
(3 5.47456e-16 0)
(3 7.42978e-16 0)
(3 5.53761e-16 0)
(3 -3.43112e-16 0)
(3 -1.09866e-15 0)
(3 -6.22505e-16 0)
(3 1.10322e-16 0)
(3 1.07706e-15 0)
(3 3.37726e-16 0)
(3 4.30094e-16 0)
(3 1.46159e-15 0)
(3 3.29299e-15 0)
(3 2.16624e-15 0)
(3 3.13568e-15 0)
(3 3.2343e-15 0)
(3 3.33733e-15 0)
(3 2.99845e-15 0)
(3 1.52577e-15 0)
(3 1.29416e-15 0)
(3 1.56934e-15 0)
(3 1.29207e-15 0)
(3 8.59033e-16 0)
(3 -2.6748e-16 0)
(3 -1.58282e-15 0)
(3 -6.31013e-17 0)
(3 -9.6976e-17 0)
(3 -4.91589e-16 0)
(3 3.98943e-16 0)
(3 1.59864e-15 0)
(3 2.0798e-15 0)
(3 1.90756e-15 0)
(3 2.07211e-15 0)
(3 1.15667e-15 0)
(3 -5.04675e-16 0)
(3 -3.91082e-16 0)
(3 -1.3526e-16 0)
(3 1.17938e-16 0)
(3 8.75677e-17 0)
(3 -1.65015e-16 0)
(3 2.50251e-16 0)
(3 1.79549e-15 0)
(3 3.13353e-15 0)
(3 2.84545e-15 0)
(3 1.33193e-15 0)
(3 5.67043e-16 0)
(3 4.60322e-17 0)
(3 -1.36376e-15 0)
(3 -1.2441e-15 0)
(3 3.18095e-16 0)
(3 9.21535e-16 0)
(3 1.01778e-15 0)
(3 9.95812e-16 0)
(3 9.02218e-16 0)
(3 1.15256e-15 0)
(3 6.29344e-16 0)
(3 1.18932e-15 0)
(3 1.77796e-15 0)
(3 1.54503e-15 0)
(3 1.85769e-15 0)
(3 2.4964e-15 0)
(3 2.63865e-15 0)
(3 2.96217e-15 0)
(3 3.77384e-15 0)
(3 3.8647e-15 0)
(3 2.75468e-15 0)
(3 1.85241e-15 0)
(3 1.58369e-15 0)
(3 1.37044e-15 0)
(3 1.91305e-15 0)
(3 1.07711e-15 0)
(3 -1.26465e-15 0)
(3 -3.45007e-15 0)
(3 -3.1209e-15 0)
(3 -1.63499e-15 0)
(3 -9.8823e-16 0)
(3 -9.56843e-16 0)
(3 -5.42722e-16 0)
(3 -3.25354e-16 0)
(3 3.52785e-16 0)
(3 7.10751e-16 0)
(3 1.70419e-15 0)
(3 1.56881e-15 0)
(3 -9.55456e-17 0)
(3 -1.33292e-15 0)
(3 1.90738e-16 0)
(3 3.19498e-16 0)
(3 2.13139e-16 0)
(3 -1.05872e-16 0)
(3 -4.55524e-16 0)
(3 -3.74531e-16 0)
(3 3.93237e-16 0)
(3 2.90657e-16 0)
(3 -2.14771e-16 0)
(3 -5.88845e-16 0)
(3 -3.99333e-16 0)
(3 -5.54781e-16 0)
(3 3.39898e-17 0)
(3 2.87793e-16 0)
(3 1.31003e-17 0)
(3 -3.37109e-16 0)
(3 -7.3317e-16 0)
(3 1.58712e-16 0)
(3 2.00941e-15 0)
(3 2.61285e-15 0)
(3 1.96121e-15 0)
(3 2.08563e-15 0)
(3 2.53276e-15 0)
(3 2.05698e-15 0)
(3 1.01295e-15 0)
(3 -2.56278e-17 0)
(3 3.45122e-16 0)
(3 1.43639e-15 0)
(3 1.70679e-15 0)
(3 1.89489e-15 0)
(3 2.39053e-15 0)
(3 2.89163e-15 0)
(3 3.14623e-15 0)
(3 1.91265e-15 0)
(3 -2.54794e-16 0)
(3 -5.29136e-16 0)
(3 -9.95538e-16 0)
(3 -6.69054e-16 0)
(3 -2.59117e-17 0)
(3 8.42263e-16 0)
(3 1.42285e-15 0)
(3 2.68704e-15 0)
(3 3.19783e-15 0)
(3 2.61436e-15 0)
(3 1.59771e-15 0)
(3 1.03194e-15 0)
(3 7.78961e-16 0)
(3 1.1615e-15 0)
(3 1.03334e-15 0)
(3 7.29377e-16 0)
(3 5.02061e-16 0)
(3 -2.72021e-16 0)
(3 1.05154e-15 0)
(3 2.38049e-15 0)
(3 2.68712e-15 0)
(3 2.03914e-15 0)
(3 2.2551e-15 0)
(3 1.50971e-15 0)
(3 8.54305e-16 0)
(3 8.79976e-16 0)
(3 1.38444e-15 0)
(3 1.31228e-15 0)
(3 1.29042e-15 0)
(3 1.44382e-15 0)
(3 2.53441e-15 0)
(3 2.53768e-15 0)
(3 2.58648e-15 0)
(3 3.58356e-15 0)
(3 4.23665e-15 0)
(3 4.16699e-15 0)
(3 3.4118e-15 0)
(3 3.5157e-15 0)
(3 4.59496e-15 0)
(3 6.79718e-15 0)
(3 6.76131e-15 0)
(3 6.12318e-15 0)
(3 4.59302e-15 0)
(3 3.71834e-15 0)
(3 2.71985e-15 0)
(3 1.12568e-15 0)
(3 1.62215e-16 0)
(3 -1.6698e-16 0)
(3 -3.56664e-16 0)
(3 -1.32896e-15 0)
(3 -1.73654e-15 0)
(3 -1.59749e-15 0)
(3 -9.43126e-16 0)
(3 -4.04838e-16 0)
(3 8.13976e-17 0)
(3 2.42769e-16 0)
(3 5.25905e-16 0)
(3 1.14423e-15 0)
(3 2.60698e-15 0)
(3 2.52185e-15 0)
(3 2.39797e-15 0)
(3 1.22725e-15 0)
(3 -1.90352e-16 0)
(3 -1.35614e-17 0)
(3 -2.93011e-16 0)
(3 -3.06558e-16 0)
(3 -2.68715e-16 0)
(3 -1.02646e-16 0)
(3 2.23141e-16 0)
(3 6.42308e-16 0)
(3 1.19026e-15 0)
(3 1.60363e-15 0)
(3 1.07516e-15 0)
(3 -3.93489e-17 0)
(3 -1.41125e-16 0)
(3 -1.9342e-16 0)
(3 -4.65325e-16 0)
(3 1.28733e-17 0)
(3 3.35122e-16 0)
(3 1.49812e-16 0)
(3 1.6859e-15 0)
(3 1.92631e-15 0)
(3 2.87109e-15 0)
(3 2.92694e-15 0)
(3 1.68747e-15 0)
(3 1.41779e-15 0)
(3 8.5862e-17 0)
(3 -1.61731e-15 0)
(3 -2.16574e-15 0)
(3 -1.81291e-15 0)
(3 -4.72311e-16 0)
(3 1.3394e-15 0)
(3 1.583e-15 0)
(3 9.84169e-16 0)
(3 9.18083e-16 0)
(3 -4.45107e-18 0)
(3 -8.49035e-16 0)
(3 -1.66577e-15 0)
(3 -2.45249e-15 0)
(3 -1.77824e-15 0)
(3 -6.59538e-17 0)
(3 2.48384e-16 0)
(3 6.07522e-16 0)
(3 1.7117e-15 0)
(3 2.71574e-15 0)
(3 2.68713e-15 0)
(3 2.23698e-15 0)
(3 1.93404e-15 0)
(3 1.7401e-15 0)
(3 2.17391e-15 0)
(3 2.04531e-15 0)
(3 2.17827e-15 0)
(3 1.83474e-15 0)
(3 -6.6601e-16 0)
(3 -9.0948e-16 0)
(3 1.69797e-16 0)
(3 1.30693e-15 0)
(3 1.08278e-15 0)
(3 1.05955e-15 0)
(3 2.03332e-15 0)
(3 2.80908e-15 0)
(3 2.00381e-15 0)
(3 1.79496e-15 0)
(3 1.90999e-15 0)
(3 2.76239e-15 0)
(3 4.01187e-15 0)
(3 5.36982e-15 0)
(3 4.99618e-15 0)
(3 4.68574e-15 0)
(3 4.3232e-15 0)
(3 3.64371e-15 0)
(3 3.95481e-15 0)
(3 3.65585e-15 0)
(3 3.0652e-15 0)
(3 2.90582e-15 0)
(3 4.52278e-15 0)
(3 4.23098e-15 0)
(3 3.44764e-15 0)
(3 2.55378e-15 0)
(3 2.93233e-15 0)
(3 2.0635e-15 0)
(3 8.24072e-16 0)
(3 -2.24255e-16 0)
(3 -4.69936e-16 0)
(3 -3.56103e-16 0)
(3 -1.49899e-16 0)
(3 -7.5036e-16 0)
(3 -1.18258e-15 0)
(3 -9.67687e-16 0)
(3 -7.12254e-16 0)
(3 8.70543e-16 0)
(3 9.51818e-16 0)
(3 1.19904e-15 0)
(3 1.94902e-15 0)
(3 2.2271e-15 0)
(3 2.40875e-15 0)
(3 3.02756e-15 0)
(3 2.69504e-15 0)
(3 1.41109e-16 0)
(3 -1.77508e-17 0)
(3 -5.79812e-16 0)
(3 -7.83194e-16 0)
(3 -8.77395e-16 0)
(3 -7.46065e-16 0)
(3 -3.50493e-16 0)
(3 3.01556e-16 0)
(3 1.0227e-15 0)
(3 2.31087e-15 0)
(3 2.25638e-15 0)
(3 1.85761e-15 0)
(3 2.02627e-15 0)
(3 1.88726e-15 0)
(3 1.31171e-15 0)
(3 8.47066e-16 0)
(3 7.16249e-16 0)
(3 9.32803e-16 0)
(3 1.55914e-15 0)
(3 1.67784e-15 0)
(3 2.29134e-15 0)
(3 3.27823e-15 0)
(3 2.68381e-15 0)
(3 1.20247e-15 0)
(3 3.60209e-16 0)
(3 -5.97644e-16 0)
(3 -2.37547e-15 0)
(3 -3.33482e-15 0)
(3 -2.04007e-15 0)
(3 1.00127e-15 0)
(3 1.61772e-15 0)
(3 8.6697e-16 0)
(3 -3.4462e-16 0)
(3 -9.01258e-16 0)
(3 -1.35847e-15 0)
(3 -1.54935e-15 0)
(3 -1.15833e-15 0)
(3 -4.3765e-16 0)
(3 -5.01031e-16 0)
(3 -1.36221e-16 0)
(3 -1.32575e-16 0)
(3 -4.51161e-16 0)
(3 -1.12811e-15 0)
(3 4.74861e-16 0)
(3 1.32019e-15 0)
(3 1.54253e-15 0)
(3 1.32531e-15 0)
(3 1.56404e-15 0)
(3 1.65629e-15 0)
(3 7.25354e-16 0)
(3 -5.25218e-16 0)
(3 -9.549e-16 0)
(3 -4.02632e-16 0)
(3 8.53358e-16 0)
(3 1.26054e-15 0)
(3 1.88709e-15 0)
(3 1.92503e-15 0)
(3 2.43062e-15 0)
(3 2.46006e-15 0)
(3 1.23839e-15 0)
(3 5.75448e-16 0)
(3 -7.84467e-17 0)
(3 3.91025e-16 0)
(3 5.26249e-16 0)
(3 1.32013e-15 0)
(3 1.89201e-15 0)
(3 2.28004e-15 0)
(3 1.39576e-15 0)
(3 1.47719e-15 0)
(3 1.70688e-15 0)
(3 1.8242e-15 0)
(3 1.37117e-15 0)
(3 4.22248e-16 0)
(3 4.04819e-16 0)
(3 6.92319e-16 0)
(3 1.39483e-15 0)
(3 1.82867e-15 0)
(3 2.46384e-15 0)
(3 2.19281e-15 0)
(3 9.77675e-16 0)
(3 -2.08734e-16 0)
(3 -7.93159e-16 0)
(3 -7.93592e-16 0)
(3 -1.54301e-15 0)
(3 -1.61485e-15 0)
(3 -9.83939e-16 0)
(3 -1.65981e-16 0)
(3 1.18991e-16 0)
(3 8.83994e-16 0)
(3 1.50953e-15 0)
(3 8.73335e-16 0)
(3 9.95594e-16 0)
(3 1.73598e-15 0)
(3 2.30511e-15 0)
(3 2.5192e-15 0)
(3 2.41393e-15 0)
(3 2.43525e-16 0)
(3 -1.73086e-16 0)
(3 -2.02109e-16 0)
(3 -6.04662e-16 0)
(3 -8.81918e-16 0)
(3 -1.17983e-15 0)
(3 -8.88628e-16 0)
(3 -4.83952e-16 0)
(3 4.02786e-17 0)
(3 9.62827e-16 0)
(3 1.61437e-15 0)
(3 1.40886e-15 0)
(3 9.44044e-16 0)
(3 1.10334e-15 0)
(3 9.94316e-16 0)
(3 1.46558e-15 0)
(3 1.1894e-15 0)
(3 1.9295e-15 0)
(3 2.12863e-15 0)
(3 1.55589e-15 0)
(3 1.43779e-15 0)
(3 1.52377e-15 0)
(3 1.74307e-15 0)
(3 7.12715e-16 0)
(3 5.23175e-16 0)
(3 -1.02031e-17 0)
(3 -1.02731e-15 0)
(3 -1.97061e-15 0)
(3 -3.0072e-17 0)
(3 8.88489e-16 0)
(3 2.32387e-15 0)
(3 8.80449e-16 0)
(3 -1.77069e-15 0)
(3 -1.08869e-15 0)
(3 -1.03227e-15 0)
(3 -8.25189e-16 0)
(3 -7.04711e-17 0)
(3 1.28561e-16 0)
(3 2.2876e-16 0)
(3 1.05719e-15 0)
(3 -2.64347e-17 0)
(3 -1.79483e-15 0)
(3 -2.55641e-15 0)
(3 -2.42178e-15 0)
(3 -1.29434e-15 0)
(3 4.02403e-16 0)
(3 7.75605e-16 0)
(3 6.63923e-17 0)
(3 -1.26964e-16 0)
(3 -2.32065e-15 0)
(3 -3.24148e-15 0)
(3 -2.44895e-15 0)
(3 -3.17803e-16 0)
(3 9.99508e-16 0)
(3 4.6056e-16 0)
(3 -6.59049e-17 0)
(3 5.71266e-17 0)
(3 1.4564e-15 0)
(3 1.5017e-15 0)
(3 1.68698e-15 0)
(3 5.11267e-16 0)
(3 -1.24016e-15 0)
(3 -1.60304e-15 0)
(3 -1.58663e-15 0)
(3 -2.08088e-15 0)
(3 -9.68917e-16 0)
(3 -1.10228e-15 0)
(3 -5.95407e-16 0)
(3 -2.10545e-16 0)
(3 -4.82355e-16 0)
(3 -1.11998e-15 0)
(3 -1.43475e-15 0)
(3 -1.97686e-15 0)
(3 -2.87385e-15 0)
(3 -3.5409e-15 0)
(3 -2.98746e-15 0)
(3 -1.95044e-15 0)
(3 -9.21401e-16 0)
(3 -5.21409e-16 0)
(3 -1.31769e-16 0)
(3 2.6013e-16 0)
(3 2.51259e-16 0)
(3 -9.78895e-16 0)
(3 -9.83957e-16 0)
(3 -1.46872e-16 0)
(3 -3.01072e-16 0)
(3 -3.20206e-16 0)
(3 -8.60494e-16 0)
(3 -1.10552e-15 0)
(3 -3.83533e-16 0)
(3 -8.90536e-16 0)
(3 -9.96756e-16 0)
(3 -8.56124e-16 0)
(3 1.10288e-15 0)
(3 1.73934e-15 0)
(3 1.32519e-15 0)
(3 -4.50446e-16 0)
(3 -2.71633e-16 0)
(3 7.48795e-17 0)
(3 2.91291e-16 0)
(3 5.58386e-16 0)
(3 6.8096e-16 0)
(3 6.3183e-16 0)
(3 2.26754e-16 0)
(3 2.5367e-16 0)
(3 1.16754e-16 0)
(3 -2.35244e-16 0)
(3 -2.29185e-16 0)
(3 -3.08479e-16 0)
(3 1.61523e-17 0)
(3 6.97937e-16 0)
(3 1.84855e-15 0)
(3 2.43345e-15 0)
(3 2.72256e-15 0)
(3 1.54682e-15 0)
(3 -8.62546e-16 0)
(3 -1.25881e-15 0)
(3 -1.59905e-15 0)
(3 -1.6599e-15 0)
(3 -8.88714e-16 0)
(3 5.29665e-16 0)
(3 6.59044e-16 0)
(3 1.63741e-15 0)
(3 1.31888e-15 0)
(3 -2.10774e-16 0)
(3 -7.00955e-16 0)
(3 3.42881e-16 0)
(3 7.69231e-16 0)
(3 -6.84501e-16 0)
(3 -6.22856e-16 0)
(3 2.84515e-16 0)
(3 5.45415e-16 0)
(3 2.13169e-16 0)
(3 2.44521e-16 0)
(3 5.00246e-16 0)
(3 -3.98308e-18 0)
(3 -7.49736e-17 0)
(3 -5.38651e-16 0)
(3 -9.71405e-16 0)
(3 -1.5886e-15 0)
(3 -6.99005e-16 0)
(3 2.68161e-16 0)
(3 1.62458e-15 0)
(3 1.34547e-15 0)
(3 -4.52604e-17 0)
(3 -5.1933e-16 0)
(3 -1.13227e-15 0)
(3 8.98326e-17 0)
(3 1.94045e-15 0)
(3 2.39915e-15 0)
(3 3.1237e-15 0)
(3 1.99537e-15 0)
(3 6.63461e-16 0)
(3 2.2997e-16 0)
(3 3.13936e-16 0)
(3 4.12816e-16 0)
(3 4.28203e-16 0)
(3 1.53968e-15 0)
(3 3.11815e-16 0)
(3 -1.35733e-15 0)
(3 -1.93663e-15 0)
(3 -1.43465e-15 0)
(3 -1.89114e-16 0)
(3 -1.44107e-16 0)
(3 -1.26e-15 0)
(3 -1.91034e-15 0)
(3 -2.03392e-15 0)
(3 -1.83154e-15 0)
(3 -2.81462e-15 0)
(3 -6.21415e-15 0)
(3 -7.34275e-15 0)
(3 -6.9339e-15 0)
(3 -4.34029e-15 0)
(3 -2.28581e-15 0)
(3 -7.52042e-16 0)
(3 -1.02472e-15 0)
(3 -1.43938e-15 0)
(3 -1.27899e-15 0)
(3 -8.08566e-16 0)
(3 -4.772e-16 0)
(3 -2.6542e-16 0)
(3 -7.03483e-18 0)
(3 -1.01221e-15 0)
(3 -2.41873e-15 0)
(3 -3.36964e-15 0)
(3 -4.22281e-15 0)
(3 -3.68116e-15 0)
(3 -2.57886e-15 0)
(3 -1.98007e-15 0)
(3 -1.10665e-15 0)
(3 4.65536e-16 0)
(3 2.57501e-16 0)
(3 7.41956e-17 0)
(3 3.48321e-17 0)
(3 -2.8752e-16 0)
(3 -2.35975e-16 0)
(3 1.31627e-16 0)
(3 4.93467e-16 0)
(3 1.44467e-16 0)
(3 2.16076e-16 0)
(3 -5.51957e-17 0)
(3 -3.01944e-16 0)
(3 -6.95246e-16 0)
(3 -2.98363e-16 0)
(3 2.63827e-16 0)
(3 8.38086e-16 0)
(3 1.1055e-15 0)
(3 1.60857e-15 0)
(3 2.6795e-15 0)
(3 2.50196e-15 0)
(3 6.18467e-16 0)
(3 2.6719e-17 0)
(3 -1.08563e-15 0)
(3 -2.5348e-15 0)
(3 -2.20251e-15 0)
(3 -1.18694e-15 0)
(3 2.51494e-16 0)
(3 6.27437e-16 0)
(3 1.22189e-15 0)
(3 1.38125e-15 0)
(3 8.4358e-16 0)
(3 -1.38129e-15 0)
(3 -1.5235e-15 0)
(3 -1.29656e-15 0)
(3 -5.56359e-16 0)
(3 2.84855e-17 0)
(3 5.47837e-16 0)
(3 7.36373e-16 0)
(3 1.74791e-16 0)
(3 -1.22333e-15 0)
(3 -2.02153e-15 0)
(3 -2.86611e-15 0)
(3 -2.5161e-15 0)
(3 -1.63948e-15 0)
(3 -5.29932e-16 0)
(3 -1.9384e-16 0)
(3 4.19526e-16 0)
(3 1.28451e-15 0)
(3 2.04479e-15 0)
(3 2.00192e-15 0)
(3 1.43114e-15 0)
(3 1.29629e-15 0)
(3 1.29611e-15 0)
(3 1.75295e-15 0)
(3 1.8859e-15 0)
(3 2.28116e-15 0)
(3 2.90072e-15 0)
(3 1.92003e-15 0)
(3 2.60753e-16 0)
(3 -1.03624e-16 0)
(3 -9.06197e-16 0)
(3 -1.84206e-15 0)
(3 1.26261e-15 0)
(3 2.83296e-15 0)
(3 1.63022e-15 0)
(3 -3.48651e-16 0)
(3 -6.07328e-16 0)
(3 -4.92451e-16 0)
(3 3.31459e-17 0)
(3 4.59261e-16 0)
(3 -6.34682e-17 0)
(3 -4.98065e-16 0)
(3 -4.18764e-16 0)
(3 -1.25043e-15 0)
(3 -2.28557e-15 0)
(3 -2.92593e-15 0)
(3 -1.67026e-15 0)
(3 -1.51981e-15 0)
(3 -1.01096e-15 0)
(3 -1.21294e-15 0)
(3 -1.19248e-15 0)
(3 -2.10821e-15 0)
(3 -2.95479e-15 0)
(3 -2.82388e-15 0)
(3 -1.62428e-15 0)
(3 -8.12322e-16 0)
(3 -8.83939e-16 0)
(3 -6.49723e-16 0)
(3 -8.95743e-16 0)
(3 -1.78266e-15 0)
(3 -3.87845e-15 0)
(3 -4.89161e-15 0)
(3 -3.97876e-15 0)
(3 -2.26883e-15 0)
(3 -3.75689e-15 0)
(3 -4.35374e-15 0)
(3 -1.65258e-15 0)
(3 5.75725e-16 0)
(3 1.26074e-16 0)
(3 5.23503e-16 0)
(3 6.29378e-16 0)
(3 3.42155e-16 0)
(3 -6.09433e-17 0)
(3 -5.24692e-16 0)
(3 -7.04011e-16 0)
(3 -7.75955e-16 0)
(3 -7.95911e-16 0)
(3 -8.37553e-16 0)
(3 -5.81609e-16 0)
(3 4.07781e-16 0)
(3 6.12805e-16 0)
(3 5.54655e-16 0)
(3 5.31142e-16 0)
(3 1.30712e-15 0)
(3 2.66197e-15 0)
(3 3.07262e-15 0)
(3 3.23983e-15 0)
(3 2.3926e-15 0)
(3 9.13959e-16 0)
(3 -6.61748e-16 0)
(3 -7.17113e-16 0)
(3 -1.6864e-15 0)
(3 -2.25574e-15 0)
(3 -1.02334e-15 0)
(3 -8.98831e-16 0)
(3 -9.83758e-16 0)
(3 -1.14216e-15 0)
(3 -1.13531e-15 0)
(3 -1.37334e-15 0)
(3 -1.8689e-15 0)
(3 -7.80176e-16 0)
(3 8.76686e-16 0)
(3 1.28052e-15 0)
(3 1.96265e-16 0)
(3 -3.08697e-16 0)
(3 -1.33047e-15 0)
(3 -2.75107e-15 0)
(3 -2.98372e-15 0)
(3 -2.59817e-15 0)
(3 -1.95072e-15 0)
(3 -1.69565e-15 0)
(3 -1.3914e-15 0)
(3 -6.0786e-16 0)
(3 1.65598e-16 0)
(3 -2.55347e-16 0)
(3 -4.41414e-16 0)
(3 2.60036e-16 0)
(3 4.24705e-16 0)
(3 1.10517e-15 0)
(3 6.91476e-16 0)
(3 1.57206e-16 0)
(3 1.65871e-16 0)
(3 -1.43212e-16 0)
(3 -1.68097e-16 0)
(3 7.88177e-16 0)
(3 1.05197e-15 0)
(3 6.80523e-16 0)
(3 6.56485e-16 0)
(3 1.82588e-15 0)
(3 2.10832e-15 0)
(3 1.90106e-15 0)
(3 1.49269e-15 0)
(3 9.52809e-16 0)
(3 4.5873e-16 0)
(3 -6.2312e-16 0)
(3 3.21588e-17 0)
(3 1.7462e-16 0)
(3 -7.93057e-16 0)
(3 -1.98826e-15 0)
(3 -1.65222e-15 0)
(3 -7.65866e-16 0)
(3 -2.46205e-15 0)
(3 -2.79602e-15 0)
(3 -2.9621e-16 0)
(3 1.28468e-17 0)
(3 -4.11482e-16 0)
(3 -8.85937e-16 0)
(3 -8.9648e-16 0)
(3 -6.96299e-16 0)
(3 -6.25335e-16 0)
(3 -4.83595e-16 0)
(3 -5.31796e-17 0)
(3 -1.81268e-16 0)
(3 1.4257e-16 0)
(3 5.08081e-16 0)
(3 2.59953e-16 0)
(3 1.55861e-16 0)
(3 -2.38113e-15 0)
(3 -4.83075e-15 0)
(3 -5.46629e-15 0)
(3 -5.64539e-15 0)
(3 -4.52378e-15 0)
(3 -3.30861e-15 0)
(3 4.85613e-16 0)
(3 3.79038e-17 0)
(3 2.07023e-16 0)
(3 7.63328e-16 0)
(3 7.05641e-16 0)
(3 6.37558e-16 0)
(3 -1.36459e-18 0)
(3 -1.11319e-16 0)
(3 -5.37468e-16 0)
(3 -1.01803e-15 0)
(3 -1.55414e-15 0)
(3 -1.26114e-15 0)
(3 -8.62295e-16 0)
(3 -4.22275e-16 0)
(3 1.50226e-16 0)
(3 6.88637e-16 0)
(3 1.22566e-15 0)
(3 1.92303e-15 0)
(3 4.79895e-15 0)
(3 4.63352e-15 0)
(3 4.09106e-15 0)
(3 3.86493e-15 0)
(3 1.34546e-15 0)
(3 7.00889e-16 0)
(3 -2.12025e-16 0)
(3 -1.64807e-15 0)
(3 -2.78149e-15 0)
(3 -2.16997e-15 0)
(3 -1.19646e-15 0)
(3 -1.82037e-15 0)
(3 -1.95204e-15 0)
(3 -8.02588e-16 0)
(3 4.63249e-16 0)
(3 1.18954e-15 0)
(3 1.27405e-15 0)
(3 1.23479e-15 0)
(3 5.12819e-16 0)
(3 1.00911e-15 0)
(3 1.31334e-15 0)
(3 8.75937e-16 0)
(3 -4.19042e-16 0)
(3 -7.46887e-16 0)
(3 -2.12693e-15 0)
(3 -2.97877e-15 0)
(3 -2.77142e-15 0)
(3 -1.77851e-15 0)
(3 -1.68173e-15 0)
(3 -2.25024e-15 0)
(3 -1.41198e-15 0)
(3 -6.35959e-17 0)
(3 1.42603e-15 0)
(3 2.1566e-15 0)
(3 8.62191e-16 0)
(3 1.39289e-16 0)
(3 -2.73471e-16 0)
(3 3.8363e-17 0)
(3 6.95033e-17 0)
(3 3.09124e-16 0)
(3 6.4268e-16 0)
(3 7.90554e-16 0)
(3 1.82859e-15 0)
(3 4.5809e-16 0)
(3 6.00283e-16 0)
(3 1.26833e-15 0)
(3 1.45478e-15 0)
(3 2.26161e-16 0)
(3 -1.47506e-15 0)
(3 -3.5876e-15 0)
(3 -4.30551e-15 0)
(3 -4.07478e-15 0)
(3 -4.2842e-15 0)
(3 -4.43733e-15 0)
(3 -3.66683e-15 0)
(3 -1.49679e-15 0)
(3 -7.17864e-16 0)
(3 -7.83289e-16 0)
(3 -2.95962e-16 0)
(3 -1.08871e-15 0)
(3 -1.27568e-15 0)
(3 -1.7789e-15 0)
(3 -1.56797e-15 0)
(3 -4.59998e-16 0)
(3 4.06435e-16 0)
(3 2.05055e-15 0)
(3 2.03079e-15 0)
(3 2.1684e-15 0)
(3 1.52059e-15 0)
(3 1.07225e-15 0)
(3 1.02931e-15 0)
(3 1.50055e-15 0)
(3 1.12884e-15 0)
(3 -2.17317e-15 0)
(3 -3.8998e-15 0)
(3 -4.53183e-15 0)
(3 -4.29307e-15 0)
(3 -3.29618e-15 0)
(3 -2.11993e-15 0)
(3 4.25578e-17 0)
(3 -1.6345e-16 0)
(3 -4.0972e-16 0)
(3 -1.35988e-16 0)
(3 5.71407e-17 0)
(3 -2.51568e-16 0)
(3 -8.4327e-16 0)
(3 -1.44908e-15 0)
(3 -1.68731e-15 0)
(3 -1.46191e-15 0)
(3 -1.45645e-15 0)
(3 -9.13085e-16 0)
(3 1.96051e-16 0)
(3 5.51229e-16 0)
(3 9.02869e-16 0)
(3 1.16666e-15 0)
(3 1.31692e-15 0)
(3 2.15426e-15 0)
(3 2.9775e-15 0)
(3 2.70266e-15 0)
(3 2.03024e-15 0)
(3 1.64627e-15 0)
(3 4.38225e-16 0)
(3 -2.53014e-16 0)
(3 -8.6271e-16 0)
(3 -1.78561e-15 0)
(3 -2.29447e-15 0)
(3 -1.99414e-15 0)
(3 -1.75292e-15 0)
(3 -2.08987e-15 0)
(3 -1.92377e-15 0)
(3 -4.50129e-16 0)
(3 -2.03566e-16 0)
(3 -3.7085e-16 0)
(3 -4.76157e-16 0)
(3 9.51955e-17 0)
(3 7.88731e-16 0)
(3 1.48457e-15 0)
(3 1.27583e-15 0)
(3 3.22725e-16 0)
(3 -4.60375e-16 0)
(3 -1.01377e-15 0)
(3 -1.92017e-15 0)
(3 -2.29428e-15 0)
(3 -2.26214e-15 0)
(3 -2.84019e-15 0)
(3 -2.20162e-15 0)
(3 -9.21932e-16 0)
(3 1.04443e-15 0)
(3 1.97475e-15 0)
(3 1.92213e-15 0)
(3 1.2758e-15 0)
(3 1.28598e-15 0)
(3 9.5319e-16 0)
(3 3.53034e-17 0)
(3 -5.20852e-16 0)
(3 1.21221e-15 0)
(3 1.31756e-15 0)
(3 1.14911e-15 0)
(3 -4.06533e-16 0)
(3 -1.03969e-15 0)
(3 -1.05246e-15 0)
(3 -1.82786e-15 0)
(3 -1.80427e-15 0)
(3 -2.30233e-15 0)
(3 -2.78797e-15 0)
(3 -2.8151e-15 0)
(3 -2.77319e-15 0)
(3 -3.27169e-15 0)
(3 -5.10038e-15 0)
(3 -5.31393e-15 0)
(3 -4.47777e-15 0)
(3 -3.1222e-15 0)
(3 1.28111e-16 0)
(3 2.34218e-15 0)
(3 4.40357e-16 0)
(3 -2.72495e-15 0)
(3 -3.50363e-15 0)
(3 -2.90834e-15 0)
(3 -1.75022e-15 0)
(3 -1.36451e-16 0)
(3 1.80257e-15 0)
(3 2.90062e-15 0)
(3 2.5229e-15 0)
(3 2.2075e-15 0)
(3 2.25289e-15 0)
(3 2.15118e-15 0)
(3 2.36324e-15 0)
(3 3.44066e-15 0)
(3 4.32163e-15 0)
(3 2.74495e-15 0)
(3 -1.03607e-15 0)
(3 -1.95423e-15 0)
(3 -2.49984e-15 0)
(3 -2.50506e-15 0)
(3 -2.78087e-15 0)
(3 -1.49571e-16 0)
(3 7.8945e-17 0)
(3 -3.58073e-16 0)
(3 -3.45577e-16 0)
(3 -9.5161e-16 0)
(3 -1.11956e-15 0)
(3 -9.69787e-16 0)
(3 -5.66584e-16 0)
(3 1.40233e-16 0)
(3 6.43688e-16 0)
(3 5.18323e-16 0)
(3 6.70254e-16 0)
(3 1.01795e-15 0)
(3 1.00367e-15 0)
(3 4.22669e-16 0)
(3 5.99515e-16 0)
(3 2.81981e-16 0)
(3 1.27779e-16 0)
(3 1.13739e-16 0)
(3 2.54582e-16 0)
(3 7.62497e-16 0)
(3 1.44557e-15 0)
(3 1.72064e-15 0)
(3 1.53575e-15 0)
(3 -4.14431e-16 0)
(3 -9.58477e-16 0)
(3 -2.2679e-15 0)
(3 -2.79695e-15 0)
(3 -1.59658e-15 0)
(3 -1.57583e-15 0)
(3 -1.16273e-15 0)
(3 -7.31138e-16 0)
(3 -1.15132e-15 0)
(3 -1.60692e-15 0)
(3 -2.07111e-15 0)
(3 -1.887e-15 0)
(3 -9.16705e-16 0)
(3 1.27285e-15 0)
(3 1.67258e-15 0)
(3 1.62218e-15 0)
(3 1.59624e-15 0)
(3 1.36151e-15 0)
(3 9.76074e-16 0)
(3 6.49069e-16 0)
(3 -5.18508e-16 0)
(3 -8.82775e-16 0)
(3 -1.59451e-15 0)
(3 -1.83008e-15 0)
(3 -2.73769e-16 0)
(3 5.42781e-16 0)
(3 1.03425e-15 0)
(3 1.77582e-15 0)
(3 1.68121e-15 0)
(3 1.32782e-16 0)
(3 -1.98823e-15 0)
(3 -1.9862e-15 0)
(3 1.65149e-16 0)
(3 1.93533e-16 0)
(3 1.5251e-16 0)
(3 -5.7965e-16 0)