/*--------------------------------*- C++ -*----------------------------------*\
  =========                 |
  \\      /  F ield         | OpenFOAM: The Open Source CFD Toolbox
   \\    /   O peration     | Website:  https://openfoam.org
    \\  /    A nd           | Version:  7
     \\/     M anipulation  |
\*---------------------------------------------------------------------------*/
FoamFile
{
    version     2.0;
    format      ascii;
    class       volVectorField;
    location    "1.6";
    object      U;
}
// * * * * * * * * * * * * * * * * * * * * * * * * * * * * * * * * * * * * * //

dimensions      [0 1 -1 0 0 0 0];

internalField   nonuniform List<vector> 
73728
(
(3 -1.64856e-17 0)
(3 -1.10556e-17 0)
(3 2.17756e-16 0)
(3 2.29472e-16 0)
(3 4.20939e-16 0)
(3 3.09279e-16 0)
(3 5.25317e-17 0)
(3 -2.65548e-16 0)
(3 4.9173e-16 0)
(3 6.3736e-16 0)
(3 6.39572e-16 0)
(3 -1.48244e-16 0)
(3 -3.71281e-16 0)
(3 -5.67657e-16 0)
(3 -4.22245e-16 0)
(3 -1.03139e-16 0)
(3 -2.63286e-16 0)
(3 -3.25573e-16 0)
(3 -8.22373e-16 0)
(3 -1.06795e-15 0)
(3 -1.29113e-15 0)
(3 -1.82649e-15 0)
(3 -2.0862e-15 0)
(3 -2.11913e-15 0)
(3 -1.75388e-15 0)
(3 -1.0148e-15 0)
(3 -5.93846e-16 0)
(3 -8.38309e-16 0)
(3 -1.41984e-15 0)
(3 -1.00423e-15 0)
(3 -5.01305e-16 0)
(3 5.17189e-16 0)
(3 1.32408e-15 0)
(3 1.73376e-15 0)
(3 1.82196e-15 0)
(3 1.67608e-15 0)
(3 2.12243e-15 0)
(3 1.80935e-15 0)
(3 1.38064e-15 0)
(3 1.00195e-15 0)
(3 1.08831e-15 0)
(3 6.0699e-16 0)
(3 4.00843e-17 0)
(3 -4.98458e-16 0)
(3 -3.32367e-16 0)
(3 -2.20996e-17 0)
(3 -1.07025e-16 0)
(3 -2.49082e-16 0)
(3 -3.78112e-16 0)
(3 -5.62987e-16 0)
(3 -2.67985e-16 0)
(3 -3.84135e-16 0)
(3 -7.46812e-16 0)
(3 -7.81535e-16 0)
(3 -7.92601e-16 0)
(3 -9.76159e-16 0)
(3 -1.21025e-15 0)
(3 -1.10131e-15 0)
(3 -1.19294e-15 0)
(3 -1.29538e-15 0)
(3 -1.20255e-15 0)
(3 -1.34525e-15 0)
(3 -1.03224e-15 0)
(3 -1.11473e-15 0)
(3 -3.84801e-16 0)
(3 -2.69361e-18 0)
(3 -6.50756e-16 0)
(3 -1.08787e-15 0)
(3 -1.28181e-15 0)
(3 -1.44223e-15 0)
(3 -6.06512e-16 0)
(3 4.64622e-16 0)
(3 6.05097e-16 0)
(3 3.43673e-16 0)
(3 -2.23923e-16 0)
(3 -2.76731e-16 0)
(3 1.5011e-16 0)
(3 5.10261e-17 0)
(3 6.058e-16 0)
(3 1.24194e-15 0)
(3 2.31423e-15 0)
(3 1.92015e-15 0)
(3 9.0658e-16 0)
(3 2.54299e-16 0)
(3 -6.95062e-17 0)
(3 -2.62638e-16 0)
(3 6.36252e-17 0)
(3 -5.5919e-17 0)
(3 6.71498e-16 0)
(3 1.17415e-15 0)
(3 1.0736e-15 0)
(3 1.32749e-15 0)
(3 1.39572e-15 0)
(3 3.46391e-16 0)
(3 -1.61877e-16 0)
(3 -1.38239e-15 0)
(3 4.33e-18 0)
(3 2.45838e-16 0)
(3 1.39773e-16 0)
(3 5.34233e-16 0)
(3 9.11914e-16 0)
(3 2.99168e-16 0)
(3 -3.05106e-16 0)
(3 -8.21248e-16 0)
(3 -9.47467e-16 0)
(3 -5.37768e-16 0)
(3 -4.84799e-16 0)
(3 -9.88661e-16 0)
(3 -1.0224e-15 0)
(3 -1.27889e-15 0)
(3 -6.5982e-16 0)
(3 7.08525e-17 0)
(3 7.95586e-17 0)
(3 1.24173e-16 0)
(3 -4.1987e-16 0)
(3 -1.70987e-15 0)
(3 -1.83459e-15 0)
(3 -2.13301e-15 0)
(3 -2.6385e-15 0)
(3 -2.3206e-15 0)
(3 -1.66138e-15 0)
(3 -6.90119e-16 0)
(3 -6.92284e-16 0)
(3 -4.01372e-16 0)
(3 -4.47025e-16 0)
(3 2.4942e-16 0)
(3 5.7445e-16 0)
(3 1.46092e-15 0)
(3 3.75148e-15 0)
(3 4.29233e-15 0)
(3 4.80275e-15 0)
(3 4.55365e-15 0)
(3 4.02526e-15 0)
(3 3.61467e-15 0)
(3 2.39016e-15 0)
(3 1.35418e-15 0)
(3 7.09328e-16 0)
(3 -4.86922e-16 0)
(3 -1.24245e-15 0)
(3 -1.91969e-15 0)
(3 -1.85077e-15 0)
(3 -9.35982e-16 0)
(3 -2.28859e-16 0)
(3 1.04601e-16 0)
(3 2.35111e-16 0)
(3 -2.29978e-16 0)
(3 -1.53428e-16 0)
(3 -6.76168e-16 0)
(3 -1.19759e-15 0)
(3 -1.53427e-15 0)
(3 -1.37489e-15 0)
(3 -1.34383e-15 0)
(3 -9.6728e-16 0)
(3 -5.35681e-16 0)
(3 -2.66573e-16 0)
(3 -5.41775e-16 0)
(3 -7.66862e-16 0)
(3 -1.66402e-15 0)
(3 -1.05137e-15 0)
(3 -1.38392e-15 0)
(3 -1.43345e-15 0)
(3 -1.72609e-15 0)
(3 -2.62054e-15 0)
(3 -3.27769e-15 0)
(3 -2.63501e-15 0)
(3 -2.18279e-15 0)
(3 -1.56969e-15 0)
(3 -9.99521e-16 0)
(3 -6.00054e-16 0)
(3 -1.3788e-15 0)
(3 -1.88956e-15 0)
(3 -1.01561e-15 0)
(3 5.82403e-16 0)
(3 1.74657e-15 0)
(3 3.70777e-15 0)
(3 4.23289e-15 0)
(3 4.17237e-15 0)
(3 4.01721e-15 0)
(3 3.2541e-15 0)
(3 2.67592e-15 0)
(3 1.82049e-15 0)
(3 4.9296e-16 0)
(3 4.89563e-16 0)
(3 4.32654e-16 0)
(3 2.4551e-16 0)
(3 1.89901e-16 0)
(3 2.42605e-16 0)
(3 7.47547e-16 0)
(3 -1.98364e-16 0)
(3 -1.40763e-15 0)
(3 -1.42888e-15 0)
(3 -1.79751e-15 0)
(3 1.09134e-16 0)
(3 -2.73575e-17 0)
(3 -3.29249e-16 0)
(3 9.98271e-16 0)
(3 1.05936e-15 0)
(3 3.75814e-16 0)
(3 -7.05356e-16 0)
(3 -1.83778e-15 0)
(3 -3.31922e-15 0)
(3 -3.23903e-15 0)
(3 -2.05986e-15 0)
(3 -1.08449e-15 0)
(3 -3.54341e-16 0)
(3 2.92046e-16 0)
(3 4.78881e-16 0)
(3 6.57953e-16 0)
(3 5.3475e-16 0)
(3 7.51737e-16 0)
(3 1.16143e-15 0)
(3 2.52109e-16 0)
(3 1.67827e-16 0)
(3 -1.71733e-16 0)
(3 -6.00028e-16 0)
(3 -7.90785e-16 0)
(3 -9.13527e-16 0)
(3 -1.44059e-15 0)
(3 -1.40096e-15 0)
(3 -1.3976e-15 0)
(3 7.22451e-17 0)
(3 1.81106e-15 0)
(3 2.83721e-15 0)
(3 2.75226e-15 0)
(3 3.62049e-15 0)
(3 4.01448e-15 0)
(3 3.9306e-15 0)
(3 2.99862e-15 0)
(3 2.39015e-15 0)
(3 2.4105e-15 0)
(3 1.5764e-15 0)
(3 -7.04684e-16 0)
(3 -2.09021e-15 0)
(3 -2.79201e-15 0)
(3 -3.53094e-15 0)
(3 -3.45046e-15 0)
(3 -3.70814e-15 0)
(3 -3.23494e-15 0)
(3 -2.41258e-15 0)
(3 -1.68376e-15 0)
(3 -9.58321e-16 0)
(3 -6.48676e-16 0)
(3 -9.95363e-16 0)
(3 -1.39669e-15 0)
(3 -1.42198e-15 0)
(3 -1.87943e-15 0)
(3 -2.14364e-15 0)
(3 -2.07451e-15 0)
(3 -1.52041e-15 0)
(3 -1.8081e-15 0)
(3 -1.74023e-15 0)
(3 -1.46465e-15 0)
(3 -1.95326e-15 0)
(3 -3.0388e-15 0)
(3 -1.63295e-15 0)
(3 -9.98159e-16 0)
(3 -1.9566e-15 0)
(3 -3.05723e-15 0)
(3 -3.23742e-15 0)
(3 -2.61702e-15 0)
(3 -2.9166e-15 0)
(3 -2.92228e-15 0)
(3 -3.04628e-15 0)
(3 -3.13084e-15 0)
(3 -3.23291e-15 0)
(3 -2.88099e-15 0)
(3 -2.32201e-15 0)
(3 8.5261e-16 0)
(3 2.4298e-15 0)
(3 4.0192e-15 0)
(3 5.50894e-15 0)
(3 5.75377e-15 0)
(3 4.96211e-15 0)
(3 3.62107e-15 0)
(3 4.10303e-15 0)
(3 4.33449e-15 0)
(3 3.0773e-15 0)
(3 9.84421e-16 0)
(3 -5.07395e-16 0)
(3 -1.36678e-15 0)
(3 -1.55466e-15 0)
(3 -1.0391e-15 0)
(3 1.50644e-17 0)
(3 1.02472e-15 0)
(3 3.73053e-16 0)
(3 -6.01579e-16 0)
(3 -2.92619e-15 0)
(3 -2.40405e-15 0)
(3 1.09427e-16 0)
(3 3.25936e-16 0)
(3 7.15535e-16 0)
(3 7.36805e-16 0)
(3 9.32895e-16 0)
(3 8.27348e-16 0)
(3 1.73186e-16 0)
(3 -6.56601e-16 0)
(3 -1.09157e-15 0)
(3 -1.36192e-15 0)
(3 -1.17288e-15 0)
(3 -3.86628e-16 0)
(3 1.4118e-16 0)
(3 5.36374e-16 0)
(3 4.13908e-16 0)
(3 4.94802e-16 0)
(3 6.659e-16 0)
(3 1.07477e-15 0)
(3 2.19321e-15 0)
(3 2.56557e-15 0)
(3 2.45921e-15 0)
(3 1.55336e-15 0)
(3 8.4002e-16 0)
(3 1.62493e-16 0)
(3 3.30453e-16 0)
(3 3.62383e-16 0)
(3 3.5607e-16 0)
(3 6.34144e-17 0)
(3 4.67324e-16 0)
(3 1.792e-15 0)
(3 3.34847e-15 0)
(3 3.68901e-15 0)
(3 3.51016e-15 0)
(3 3.99474e-15 0)
(3 3.32554e-15 0)
(3 7.9209e-16 0)
(3 4.42799e-16 0)
(3 -4.70543e-16 0)
(3 -2.00096e-15 0)
(3 -3.4179e-15 0)
(3 -4.30386e-15 0)
(3 -4.50886e-15 0)
(3 -4.43455e-15 0)
(3 -4.26113e-15 0)
(3 -3.38165e-15 0)
(3 -3.42763e-15 0)
(3 -3.07392e-15 0)
(3 -2.74491e-15 0)
(3 -2.45369e-15 0)
(3 -9.11653e-16 0)
(3 -7.20846e-16 0)
(3 -8.48899e-16 0)
(3 -1.29926e-16 0)
(3 -3.83225e-16 0)
(3 -8.90191e-16 0)
(3 -1.61449e-15 0)
(3 -2.63292e-15 0)
(3 -3.14208e-15 0)
(3 -3.69828e-15 0)
(3 -4.29323e-15 0)
(3 -4.78411e-15 0)
(3 -4.08487e-15 0)
(3 -2.4122e-15 0)
(3 -1.11932e-15 0)
(3 -6.19012e-16 0)
(3 -2.62657e-16 0)
(3 1.01563e-16 0)
(3 2.62229e-16 0)
(3 8.38784e-17 0)
(3 -3.2538e-17 0)
(3 -6.20855e-16 0)
(3 -8.82144e-16 0)
(3 -3.45111e-16 0)
(3 2.50044e-16 0)
(3 2.08984e-15 0)
(3 3.08937e-15 0)
(3 3.6414e-15 0)
(3 3.67347e-15 0)
(3 3.41979e-15 0)
(3 3.14303e-15 0)
(3 2.42018e-15 0)
(3 1.67982e-15 0)
(3 1.2951e-15 0)
(3 6.02135e-16 0)
(3 -1.48174e-16 0)
(3 -2.6616e-15 0)
(3 -4.86487e-15 0)
(3 -5.0287e-15 0)
(3 -4.27157e-15 0)
(3 -3.27029e-15 0)
(3 -3.39748e-15 0)
(3 -2.35513e-15 0)
(3 -5.49053e-16 0)
(3 5.56593e-16 0)
(3 1.74746e-16 0)
(3 -2.1097e-15 0)
(3 3.9756e-16 0)
(3 1.05168e-15 0)
(3 9.74725e-16 0)
(3 6.41704e-16 0)
(3 6.81074e-16 0)
(3 1.14793e-15 0)
(3 2.34252e-15 0)
(3 2.41276e-15 0)
(3 1.80174e-15 0)
(3 1.40543e-15 0)
(3 1.36955e-15 0)
(3 1.18364e-15 0)
(3 9.96708e-16 0)
(3 4.61574e-16 0)
(3 5.51436e-16 0)
(3 6.11122e-16 0)
(3 1.50238e-15 0)
(3 2.20736e-15 0)
(3 2.67658e-15 0)
(3 3.50932e-15 0)
(3 3.80156e-15 0)
(3 2.96026e-15 0)
(3 1.54525e-15 0)
(3 1.29458e-15 0)
(3 1.6102e-15 0)
(3 1.916e-15 0)
(3 1.68512e-15 0)
(3 1.65694e-15 0)
(3 1.63362e-15 0)
(3 1.83891e-15 0)
(3 2.6951e-15 0)
(3 2.44379e-15 0)
(3 1.92372e-15 0)
(3 2.00468e-15 0)
(3 1.10518e-15 0)
(3 8.79029e-16 0)
(3 5.03684e-16 0)
(3 -1.42939e-15 0)
(3 -2.28807e-15 0)
(3 -3.07704e-15 0)
(3 -3.57702e-15 0)
(3 -4.02468e-15 0)
(3 -3.73257e-15 0)
(3 -2.99639e-15 0)
(3 -2.23472e-15 0)
(3 -1.5726e-15 0)
(3 -1.90318e-15 0)
(3 -2.35904e-15 0)
(3 -3.20025e-15 0)
(3 -3.36591e-15 0)
(3 -2.69157e-15 0)
(3 -1.48743e-15 0)
(3 -1.22617e-16 0)
(3 5.10759e-16 0)
(3 2.47801e-16 0)
(3 -1.57213e-15 0)
(3 -4.25896e-15 0)
(3 -4.62623e-15 0)
(3 -6.45376e-15 0)
(3 -7.24e-15 0)
(3 -6.98092e-15 0)
(3 -6.82365e-15 0)
(3 -6.30702e-15 0)
(3 -5.75779e-15 0)
(3 -5.37189e-15 0)
(3 -4.0006e-15 0)
(3 -1.9093e-15 0)
(3 -9.83467e-16 0)
(3 2.78449e-16 0)
(3 1.28068e-15 0)
(3 9.09245e-16 0)
(3 -6.3614e-17 0)
(3 -7.76066e-16 0)
(3 -4.07248e-16 0)
(3 1.35544e-15 0)
(3 1.83111e-15 0)
(3 1.74191e-15 0)
(3 5.53305e-16 0)
(3 4.11343e-16 0)
(3 5.39364e-16 0)
(3 1.49203e-15 0)
(3 2.25636e-15 0)
(3 1.3757e-15 0)
(3 -1.49625e-15 0)
(3 -4.4127e-15 0)
(3 -6.72653e-15 0)
(3 -6.89468e-15 0)
(3 -6.41454e-15 0)
(3 -4.77297e-15 0)
(3 -3.42492e-15 0)
(3 -3.41543e-15 0)
(3 -3.67169e-15 0)
(3 -2.31499e-15 0)
(3 1.22822e-17 0)
(3 2.48667e-15 0)
(3 1.47987e-15 0)
(3 -9.47177e-17 0)
(3 -2.09538e-16 0)
(3 -1.6032e-16 0)
(3 2.18671e-16 0)
(3 5.86443e-16 0)
(3 1.30163e-15 0)
(3 1.87556e-15 0)
(3 2.1965e-15 0)
(3 3.18926e-15 0)
(3 3.4911e-15 0)
(3 3.60101e-15 0)
(3 2.56964e-15 0)
(3 1.99144e-15 0)
(3 1.8313e-15 0)
(3 1.46638e-15 0)
(3 1.14213e-15 0)
(3 1.79316e-15 0)
(3 1.68363e-15 0)
(3 1.45069e-15 0)
(3 1.51201e-15 0)
(3 1.63287e-15 0)
(3 1.50481e-15 0)
(3 1.54101e-15 0)
(3 1.30013e-15 0)
(3 9.87828e-16 0)
(3 -6.65543e-17 0)
(3 -1.03157e-16 0)
(3 7.50832e-16 0)
(3 1.30097e-15 0)
(3 1.49378e-15 0)
(3 2.26974e-15 0)
(3 1.92925e-15 0)
(3 1.05996e-15 0)
(3 -4.66118e-16 0)
(3 -6.67829e-16 0)
(3 -3.27894e-16 0)
(3 -2.62775e-16 0)
(3 -1.65563e-15 0)
(3 -2.48183e-15 0)
(3 -2.92266e-15 0)
(3 -2.73956e-15 0)
(3 -2.89198e-15 0)
(3 -2.55045e-15 0)
(3 -1.30187e-15 0)
(3 -1.27615e-15 0)
(3 -1.43739e-15 0)
(3 -1.8623e-15 0)
(3 -2.18588e-15 0)
(3 -3.06922e-15 0)
(3 -3.66386e-15 0)
(3 -3.33703e-15 0)
(3 -1.44355e-15 0)
(3 -3.71804e-16 0)
(3 -6.23749e-16 0)
(3 -1.37456e-15 0)
(3 -2.44874e-15 0)
(3 -2.86672e-15 0)
(3 -3.5294e-15 0)
(3 -4.70371e-15 0)
(3 -5.06472e-15 0)
(3 -5.30275e-15 0)
(3 -5.51544e-15 0)
(3 -5.74577e-15 0)
(3 -5.88177e-15 0)
(3 -5.83364e-15 0)
(3 -4.58709e-15 0)
(3 -4.07196e-15 0)
(3 -2.69373e-15 0)
(3 -1.21616e-15 0)
(3 -7.59958e-16 0)
(3 -3.6145e-16 0)
(3 -3.0317e-16 0)
(3 -2.42929e-16 0)
(3 2.17682e-15 0)
(3 2.83744e-15 0)
(3 1.82997e-15 0)
(3 1.40107e-15 0)
(3 8.59685e-16 0)
(3 6.76398e-16 0)
(3 8.30144e-16 0)
(3 1.25764e-15 0)
(3 2.10037e-15 0)
(3 5.34227e-16 0)
(3 -9.30625e-16 0)
(3 -4.38577e-15 0)
(3 -5.66791e-15 0)
(3 -5.35701e-15 0)
(3 -4.18079e-15 0)
(3 -3.67207e-15 0)
(3 -2.4964e-15 0)
(3 -1.1435e-15 0)
(3 2.18665e-16 0)
(3 1.64081e-15 0)
(3 3.61876e-15 0)
(3 5.27207e-15 0)
(3 6.24472e-15 0)
(3 -9.92201e-18 0)
(3 2.62193e-16 0)
(3 6.45051e-16 0)
(3 1.01998e-15 0)
(3 1.45731e-15 0)
(3 2.22858e-15 0)
(3 2.12023e-15 0)
(3 2.21242e-15 0)
(3 2.42726e-15 0)
(3 1.94466e-15 0)
(3 1.11797e-15 0)
(3 7.46201e-16 0)
(3 5.79005e-16 0)
(3 4.10387e-16 0)
(3 4.49902e-16 0)
(3 7.71622e-16 0)
(3 3.78678e-16 0)
(3 -3.2689e-16 0)
(3 -7.09086e-16 0)
(3 -6.75075e-16 0)
(3 -3.50185e-16 0)
(3 1.60361e-16 0)
(3 8.96698e-16 0)
(3 1.08631e-15 0)
(3 6.41804e-16 0)
(3 -6.19415e-16 0)
(3 -9.95794e-16 0)
(3 -2.41735e-16 0)
(3 5.8057e-16 0)
(3 1.0448e-15 0)
(3 1.2844e-15 0)
(3 9.05461e-16 0)
(3 4.38184e-16 0)
(3 -4.26226e-16 0)
(3 -3.16358e-16 0)
(3 -1.6248e-16 0)
(3 -1.95329e-16 0)
(3 -7.75012e-16 0)
(3 -8.63097e-16 0)
(3 -8.85386e-16 0)
(3 -9.61057e-16 0)
(3 -5.31919e-16 0)
(3 -7.19063e-16 0)
(3 -1.04887e-15 0)
(3 -1.87827e-15 0)
(3 -2.1026e-15 0)
(3 -2.01158e-15 0)
(3 -2.12881e-15 0)
(3 -1.88174e-15 0)
(3 -1.67865e-15 0)
(3 -1.23245e-15 0)
(3 -1.26562e-15 0)
(3 -1.61319e-15 0)
(3 -1.47155e-15 0)
(3 -1.74783e-15 0)
(3 -1.70568e-15 0)
(3 -1.14892e-15 0)
(3 -8.03931e-16 0)
(3 -7.98005e-16 0)
(3 -4.8751e-16 0)
(3 -1.61512e-15 0)
(3 -2.28931e-15 0)
(3 -3.22568e-15 0)
(3 -3.84497e-15 0)
(3 -2.90879e-15 0)
(3 -2.82581e-15 0)
(3 -2.63271e-15 0)
(3 -2.84961e-15 0)
(3 -2.782e-15 0)
(3 -2.72492e-15 0)
(3 -1.87593e-15 0)
(3 -1.90386e-16 0)
(3 2.13384e-15 0)
(3 2.54705e-15 0)
(3 1.59454e-15 0)
(3 1.30152e-15 0)
(3 1.69407e-15 0)
(3 1.73262e-15 0)
(3 6.74042e-16 0)
(3 3.0919e-16 0)
(3 -1.77522e-15 0)
(3 -2.91541e-15 0)
(3 -2.96977e-15 0)
(3 -3.25837e-15 0)
(3 -4.58039e-15 0)
(3 -4.61611e-15 0)
(3 -2.90597e-15 0)
(3 -2.05947e-15 0)
(3 -1.52942e-15 0)
(3 -1.65104e-15 0)
(3 -1.0365e-15 0)
(3 2.88424e-16 0)
(3 2.80954e-15 0)
(3 5.17919e-15 0)
(3 5.81537e-15 0)
(3 6.0947e-15 0)
(3 -3.4557e-16 0)
(3 -4.04659e-16 0)
(3 1.77933e-16 0)
(3 7.90164e-16 0)
(3 1.55605e-15 0)
(3 1.22207e-15 0)
(3 1.02534e-15 0)
(3 1.39886e-15 0)
(3 2.99447e-16 0)
(3 -1.04937e-15 0)
(3 -1.8441e-15 0)
(3 -1.27251e-15 0)
(3 -7.80505e-16 0)
(3 -7.92036e-16 0)
(3 8.85009e-17 0)
(3 2.5316e-16 0)
(3 -2.84096e-16 0)
(3 -4.54315e-16 0)
(3 -1.80664e-16 0)
(3 -3.08755e-16 0)
(3 -2.25837e-16 0)
(3 3.14399e-16 0)
(3 5.92634e-16 0)
(3 9.26513e-16 0)
(3 9.01858e-16 0)
(3 1.18456e-15 0)
(3 1.16221e-15 0)
(3 8.29094e-16 0)
(3 4.96095e-16 0)
(3 7.44504e-16 0)
(3 4.56526e-16 0)
(3 -1.00582e-15 0)
(3 -2.09541e-15 0)
(3 -1.67966e-15 0)
(3 -1.7289e-15 0)
(3 -1.70792e-15 0)
(3 -2.18825e-16 0)
(3 9.11807e-16 0)
(3 1.4679e-15 0)
(3 1.70023e-15 0)
(3 1.54514e-15 0)
(3 8.18626e-16 0)
(3 3.29831e-16 0)
(3 -1.83311e-16 0)
(3 -1.08346e-15 0)
(3 -8.16111e-16 0)
(3 -8.86768e-16 0)
(3 -7.73956e-16 0)
(3 -4.95495e-16 0)
(3 -1.04232e-17 0)
(3 -3.52178e-16 0)
(3 -1.0232e-15 0)
(3 -1.53236e-15 0)
(3 -1.24075e-15 0)
(3 -9.3896e-16 0)
(3 -1.24837e-15 0)
(3 -1.15622e-15 0)
(3 -2.19399e-16 0)
(3 4.18589e-16 0)
(3 3.99674e-16 0)
(3 -5.46895e-16 0)
(3 -1.01327e-15 0)
(3 -1.11254e-15 0)
(3 -1.75421e-15 0)
(3 -2.22191e-15 0)
(3 -2.43136e-15 0)
(3 -2.05959e-15 0)
(3 -2.11931e-15 0)
(3 -2.61789e-15 0)
(3 -2.43231e-15 0)
(3 -2.09274e-15 0)
(3 -5.34929e-16 0)
(3 7.65175e-16 0)
(3 4.05171e-16 0)
(3 4.35432e-16 0)
(3 1.01999e-15 0)
(3 8.98149e-16 0)
(3 -1.11732e-16 0)
(3 -1.4477e-15 0)
(3 -1.82469e-15 0)
(3 -2.74191e-15 0)
(3 -3.27608e-15 0)
(3 -3.6954e-15 0)
(3 -3.38283e-15 0)
(3 -2.95588e-15 0)
(3 -2.23794e-15 0)
(3 -2.34008e-15 0)
(3 -2.65742e-15 0)
(3 -3.41482e-15 0)
(3 -3.27086e-15 0)
(3 -2.83607e-15 0)
(3 -1.54722e-15 0)
(3 4.28458e-16 0)
(3 2.81742e-15 0)
(3 5.34855e-15 0)
(3 5.1993e-15 0)
(3 -2.08545e-16 0)
(3 -6.74207e-16 0)
(3 -1.12637e-15 0)
(3 -8.94762e-16 0)
(3 -9.80169e-16 0)
(3 -1.47717e-15 0)
(3 -1.85498e-15 0)
(3 -1.85224e-15 0)
(3 -1.70864e-15 0)
(3 -1.11571e-15 0)
(3 -1.1453e-15 0)
(3 -1.23365e-15 0)
(3 -1.60486e-15 0)
(3 -8.02156e-16 0)
(3 -3.91954e-16 0)
(3 -5.29927e-16 0)
(3 -7.37663e-16 0)
(3 -5.33823e-16 0)
(3 -1.07863e-15 0)
(3 -1.07779e-15 0)
(3 -9.13256e-16 0)
(3 -8.7626e-16 0)
(3 -6.20362e-16 0)
(3 -6.64482e-16 0)
(3 -7.67822e-16 0)
(3 -4.61469e-16 0)
(3 -2.55311e-16 0)
(3 -8.30101e-17 0)
(3 -3.81048e-16 0)
(3 -8.89134e-16 0)
(3 -1.11024e-15 0)
(3 -1.15559e-15 0)
(3 -1.13142e-15 0)
(3 -1.48701e-15 0)
(3 -1.55715e-15 0)
(3 -1.32826e-15 0)
(3 -7.2583e-16 0)
(3 1.59029e-16 0)
(3 1.39298e-15 0)
(3 1.40936e-15 0)
(3 1.3352e-15 0)
(3 5.37209e-16 0)
(3 1.13421e-17 0)
(3 -7.13892e-16 0)
(3 -1.38167e-15 0)
(3 -1.19487e-15 0)
(3 -7.42475e-16 0)
(3 -5.85844e-16 0)
(3 -3.47547e-16 0)
(3 -2.42982e-16 0)
(3 -2.64508e-16 0)
(3 -4.87113e-16 0)
(3 -1.5296e-15 0)
(3 -2.23553e-15 0)
(3 -2.3783e-15 0)
(3 -2.99021e-15 0)
(3 -2.96418e-15 0)
(3 -2.41035e-15 0)
(3 -1.92522e-15 0)
(3 -1.93645e-15 0)
(3 -1.90724e-15 0)
(3 -1.81961e-15 0)
(3 -1.80003e-15 0)
(3 -1.69584e-15 0)
(3 -1.91335e-15 0)
(3 -1.58285e-15 0)
(3 -1.53256e-15 0)
(3 -1.41214e-15 0)
(3 -1.75455e-15 0)
(3 -1.97651e-15 0)
(3 -2.24159e-15 0)
(3 -2.08557e-15 0)
(3 -2.72235e-15 0)
(3 -3.09401e-15 0)
(3 -5.3791e-16 0)
(3 7.96807e-16 0)
(3 2.71359e-16 0)
(3 -3.54247e-16 0)
(3 -1.35658e-15 0)
(3 -2.51823e-15 0)
(3 -2.81426e-15 0)
(3 -2.8593e-15 0)
(3 -2.62152e-15 0)
(3 -2.31763e-15 0)
(3 -8.28631e-16 0)
(3 -3.31423e-16 0)
(3 -1.30366e-15 0)
(3 -2.88931e-15 0)
(3 -3.71461e-15 0)
(3 -1.73334e-15 0)
(3 -6.64897e-16 0)
(3 6.20886e-16 0)
(3 3.9155e-16 0)
(3 1.13758e-15 0)
(3 2.88282e-15 0)
(3 3.96762e-15 0)
(3 -1.28036e-17 0)
(3 -6.75249e-16 0)
(3 -1.5159e-15 0)
(3 -1.70839e-15 0)
(3 -1.80041e-15 0)
(3 -1.70194e-15 0)
(3 -1.69033e-15 0)
(3 -2.2731e-15 0)
(3 -2.26164e-15 0)
(3 -1.45932e-15 0)
(3 -5.96963e-16 0)
(3 -2.59218e-16 0)
(3 -4.35175e-16 0)
(3 -2.31225e-16 0)
(3 5.23235e-17 0)
(3 -3.11952e-16 0)
(3 -2.67258e-16 0)
(3 -2.80399e-16 0)
(3 -9.89284e-16 0)
(3 -7.75654e-16 0)
(3 -7.93625e-16 0)
(3 -1.226e-15 0)
(3 -1.77798e-15 0)
(3 -1.47609e-15 0)
(3 -9.5945e-16 0)
(3 -1.02225e-15 0)
(3 -8.60343e-16 0)
(3 -7.80408e-16 0)
(3 -1.09548e-15 0)
(3 -2.01264e-15 0)
(3 -2.19827e-15 0)
(3 -1.42172e-15 0)
(3 -8.8831e-16 0)
(3 -5.47223e-16 0)
(3 -1.09944e-16 0)
(3 2.33693e-16 0)
(3 2.64277e-16 0)
(3 6.9334e-16 0)
(3 8.71837e-16 0)
(3 9.83541e-16 0)
(3 1.08511e-15 0)
(3 1.0451e-15 0)
(3 1.2017e-15 0)
(3 1.17427e-15 0)
(3 7.45784e-16 0)
(3 1.04459e-16 0)
(3 -8.0833e-16 0)
(3 -4.97975e-17 0)
(3 5.17593e-16 0)
(3 1.16216e-15 0)
(3 1.04356e-15 0)
(3 5.89786e-16 0)
(3 -7.96181e-16 0)
(3 -1.97348e-15 0)
(3 -2.57563e-15 0)
(3 -2.35059e-15 0)
(3 -3.07127e-15 0)
(3 -3.1325e-15 0)
(3 -2.91094e-15 0)
(3 -2.98011e-15 0)
(3 -3.00108e-15 0)
(3 -2.82188e-15 0)
(3 -2.96755e-15 0)
(3 -2.66458e-15 0)
(3 -1.1252e-15 0)
(3 -6.33303e-16 0)
(3 -4.00087e-16 0)
(3 -5.30484e-16 0)
(3 -3.3962e-16 0)
(3 -2.54959e-16 0)
(3 -5.7102e-16 0)
(3 -1.44168e-15 0)
(3 -2.83509e-15 0)
(3 -3.56675e-15 0)
(3 -3.82329e-15 0)
(3 -3.56186e-15 0)
(3 -2.99641e-15 0)
(3 -2.19866e-15 0)
(3 -1.58242e-15 0)
(3 -1.88209e-15 0)
(3 -2.34072e-15 0)
(3 -2.48404e-15 0)
(3 -1.30734e-15 0)
(3 -1.18548e-15 0)
(3 4.15494e-17 0)
(3 8.47894e-16 0)
(3 8.09935e-16 0)
(3 7.47701e-16 0)
(3 1.23142e-15 0)
(3 1.1095e-15 0)
(3 1.05136e-15 0)
(3 8.09211e-16 0)
(3 -9.42991e-17 0)
(3 -6.97705e-16 0)
(3 -4.20234e-16 0)
(3 1.0388e-15 0)
(3 -2.8635e-16 0)
(3 -3.14474e-16 0)
(3 -2.68577e-16 0)
(3 -2.16723e-16 0)
(3 -1.39047e-16 0)
(3 -3.54911e-16 0)
(3 -4.92045e-16 0)
(3 -7.46872e-16 0)
(3 -9.20369e-16 0)
(3 -3.96886e-16 0)
(3 -2.80606e-16 0)
(3 7.04367e-16 0)
(3 1.59111e-15 0)
(3 1.61689e-15 0)
(3 3.77992e-16 0)
(3 -1.45845e-16 0)
(3 -3.68491e-16 0)
(3 -5.47423e-16 0)
(3 -3.36508e-16 0)
(3 -2.27316e-16 0)
(3 -2.76618e-16 0)
(3 -2.9335e-16 0)
(3 -7.35429e-16 0)
(3 -5.53849e-16 0)
(3 -1.36458e-16 0)
(3 3.70568e-16 0)
(3 3.38297e-16 0)
(3 3.72214e-16 0)
(3 4.17615e-16 0)
(3 -1.59107e-16 0)
(3 -1.30059e-15 0)
(3 -9.23611e-16 0)
(3 -5.01046e-16 0)
(3 7.71962e-18 0)
(3 1.91293e-16 0)
(3 -1.69774e-16 0)
(3 -2.47339e-16 0)
(3 -1.46721e-16 0)
(3 -3.02807e-16 0)
(3 7.91729e-16 0)
(3 1.22718e-15 0)
(3 1.52556e-15 0)
(3 1.52936e-15 0)
(3 1.30286e-15 0)
(3 1.06343e-15 0)
(3 4.38347e-17 0)
(3 -5.95988e-17 0)
(3 3.69085e-16 0)
(3 9.4051e-16 0)
(3 2.22957e-15 0)
(3 2.52542e-15 0)
(3 2.06263e-15 0)
(3 1.51172e-15 0)
(3 1.03484e-15 0)
(3 -5.41834e-16 0)
(3 -1.37876e-15 0)
(3 -1.73333e-15 0)
(3 -2.14958e-15 0)
(3 -2.76257e-15 0)
(3 -2.77977e-15 0)
(3 -2.44877e-15 0)
(3 -1.48507e-15 0)
(3 -7.32337e-16 0)
(3 -6.31028e-16 0)
(3 -5.17704e-16 0)
(3 -4.09476e-16 0)
(3 -9.48649e-17 0)
(3 -1.98352e-16 0)
(3 1.33529e-16 0)
(3 6.98834e-17 0)
(3 -1.37049e-15 0)
(3 -2.83611e-15 0)
(3 -3.79523e-15 0)
(3 -3.96546e-15 0)
(3 -5.05633e-15 0)
(3 -5.33594e-15 0)
(3 -5.07956e-15 0)
(3 -5.33557e-15 0)
(3 -3.86606e-15 0)
(3 -3.63588e-15 0)
(3 -3.89225e-15 0)
(3 -2.94056e-15 0)
(3 -1.07097e-15 0)
(3 2.38325e-16 0)
(3 1.95369e-15 0)
(3 3.30868e-15 0)
(3 4.0002e-15 0)
(3 4.72064e-15 0)
(3 4.14128e-15 0)
(3 2.45175e-15 0)
(3 1.71911e-15 0)
(3 -4.24357e-17 0)
(3 -7.0835e-16 0)
(3 -1.14817e-15 0)
(3 -5.99075e-16 0)
(3 1.22858e-16 0)
(3 2.75474e-16 0)
(3 1.23804e-15 0)
(3 1.34188e-15 0)
(3 4.04058e-16 0)
(3 -1.33272e-16 0)
(3 -1.44727e-15 0)
(3 -1.69711e-15 0)
(3 -1.64618e-15 0)
(3 -1.33852e-15 0)
(3 -7.63771e-16 0)
(3 -3.50144e-16 0)
(3 1.54543e-16 0)
(3 3.73768e-16 0)
(3 3.65021e-16 0)
(3 2.52593e-16 0)
(3 2.58344e-16 0)
(3 -2.92537e-16 0)
(3 -6.34041e-16 0)
(3 -8.27748e-16 0)
(3 -1.37101e-15 0)
(3 -1.86034e-15 0)
(3 -1.73852e-15 0)
(3 -5.50995e-16 0)
(3 -1.36097e-16 0)
(3 -2.11421e-16 0)
(3 1.9672e-16 0)
(3 5.41708e-16 0)
(3 7.02279e-16 0)
(3 1.04541e-15 0)
(3 9.01625e-16 0)
(3 3.22262e-16 0)
(3 1.13251e-16 0)
(3 1.30864e-17 0)
(3 -3.29837e-16 0)
(3 -7.26612e-16 0)
(3 -6.55392e-16 0)
(3 -5.53332e-16 0)
(3 -1.00486e-15 0)
(3 -7.07105e-16 0)
(3 -2.62528e-16 0)
(3 3.91189e-17 0)
(3 4.70235e-17 0)
(3 -4.10781e-16 0)
(3 -9.08391e-16 0)
(3 -2.12813e-16 0)
(3 1.07853e-15 0)
(3 1.71451e-15 0)
(3 9.40742e-16 0)
(3 1.22474e-15 0)
(3 1.70026e-15 0)
(3 1.61901e-15 0)
(3 1.9637e-15 0)
(3 1.98618e-15 0)
(3 1.8768e-15 0)
(3 1.11284e-15 0)
(3 4.28148e-16 0)
(3 -1.72388e-15 0)
(3 -1.95868e-15 0)
(3 -1.8634e-15 0)
(3 -1.97608e-15 0)
(3 -1.97733e-15 0)
(3 -2.22922e-15 0)
(3 -1.51913e-15 0)
(3 -1.48121e-15 0)
(3 -1.14985e-15 0)
(3 -7.82351e-16 0)
(3 -9.67399e-16 0)
(3 -1.13656e-15 0)
(3 -1.81799e-15 0)
(3 -3.40178e-15 0)
(3 -4.69873e-15 0)
(3 -5.25742e-15 0)
(3 -4.57007e-15 0)
(3 -3.73362e-15 0)
(3 -3.31817e-15 0)
(3 -3.27997e-15 0)
(3 -3.38178e-15 0)
(3 -3.82009e-15 0)
(3 -4.05578e-15 0)
(3 -3.38743e-15 0)
(3 -2.60033e-15 0)
(3 -1.45265e-15 0)
(3 -4.14814e-16 0)
(3 4.1342e-16 0)
(3 1.0499e-15 0)
(3 2.90251e-15 0)
(3 5.35343e-15 0)
(3 5.87165e-15 0)
(3 4.67285e-15 0)
(3 3.17012e-15 0)
(3 2.48566e-15 0)
(3 2.08675e-15 0)
(3 1.80941e-15 0)
(3 1.65171e-15 0)
(3 6.41817e-16 0)
(3 2.47768e-16 0)
(3 -3.0945e-17 0)
(3 -4.99502e-17 0)
(3 -2.09374e-16 0)
(3 -1.30569e-15 0)
(3 -2.72004e-15 0)
(3 -2.57349e-15 0)
(3 -2.45408e-15 0)
(3 -1.66569e-15 0)
(3 -1.24768e-15 0)
(3 -7.64511e-16 0)
(3 -6.00455e-16 0)
(3 -7.27108e-16 0)
(3 -1.04538e-15 0)
(3 -1.21206e-15 0)
(3 -6.65989e-16 0)
(3 -8.95405e-16 0)
(3 -1.05736e-15 0)
(3 -1.11548e-15 0)
(3 -1.56361e-15 0)
(3 -2.79095e-15 0)
(3 -3.56722e-15 0)
(3 -3.35028e-15 0)
(3 -2.71032e-15 0)
(3 -1.76989e-15 0)
(3 -9.21034e-16 0)
(3 7.93074e-16 0)
(3 1.21314e-15 0)
(3 1.3223e-15 0)
(3 8.74137e-16 0)
(3 8.44029e-16 0)
(3 9.21143e-16 0)
(3 4.92912e-16 0)
(3 -6.43465e-16 0)
(3 -1.07446e-15 0)
(3 -1.63738e-15 0)
(3 -1.83596e-15 0)
(3 -1.13984e-15 0)
(3 -1.79522e-15 0)
(3 -2.58409e-15 0)
(3 -2.8188e-15 0)
(3 -1.51234e-15 0)
(3 -7.37342e-16 0)
(3 -6.13564e-16 0)
(3 2.44826e-16 0)
(3 3.4541e-16 0)
(3 9.89633e-16 0)
(3 1.12871e-15 0)
(3 1.06204e-15 0)
(3 7.98708e-16 0)
(3 5.77837e-17 0)
(3 1.88061e-16 0)
(3 4.9105e-16 0)
(3 4.87547e-16 0)
(3 5.0809e-16 0)
(3 -5.39406e-18 0)
(3 7.66245e-16 0)
(3 -1.90547e-16 0)
(3 -1.25793e-15 0)
(3 -1.70708e-15 0)
(3 -2.72219e-15 0)
(3 -2.93119e-15 0)
(3 -3.09724e-15 0)
(3 -3.02134e-15 0)
(3 -3.03363e-15 0)
(3 -2.85337e-15 0)
(3 -1.94454e-15 0)
(3 -1.18876e-15 0)
(3 -2.4474e-15 0)
(3 -4.76604e-15 0)
(3 -5.22948e-15 0)
(3 -4.75215e-15 0)
(3 -4.80706e-15 0)
(3 -4.04292e-15 0)
(3 -1.34083e-15 0)
(3 -5.58886e-16 0)
(3 -6.83884e-16 0)
(3 -1.45498e-15 0)
(3 -2.29645e-15 0)
(3 -2.19986e-15 0)
(3 -1.14444e-15 0)
(3 2.82782e-16 0)
(3 6.63051e-16 0)
(3 3.51309e-16 0)
(3 1.18865e-15 0)
(3 1.89413e-15 0)
(3 1.64309e-15 0)
(3 2.17128e-15 0)
(3 1.81879e-15 0)
(3 1.35553e-15 0)
(3 1.18252e-15 0)
(3 1.73058e-15 0)
(3 3.75825e-15 0)
(3 5.19574e-15 0)
(3 4.11632e-15 0)
(3 2.03382e-15 0)
(3 4.81617e-16 0)
(3 -3.81292e-16 0)
(3 -8.10123e-16 0)
(3 -9.21605e-16 0)
(3 -1.38289e-15 0)
(3 -1.87522e-15 0)
(3 -1.26202e-15 0)
(3 -6.37187e-16 0)
(3 -3.43336e-16 0)
(3 -5.34449e-16 0)
(3 -7.62114e-16 0)
(3 -5.92715e-16 0)
(3 -2.47372e-16 0)
(3 -2.39256e-16 0)
(3 -2.62768e-16 0)
(3 -3.06897e-16 0)
(3 -5.31309e-16 0)
(3 -1.07992e-15 0)
(3 -1.39647e-15 0)
(3 -1.74405e-15 0)
(3 -2.07878e-15 0)
(3 -1.9638e-15 0)
(3 -1.55332e-15 0)
(3 -1.21257e-15 0)
(3 -1.70375e-15 0)
(3 -1.34868e-15 0)
(3 -5.01964e-16 0)
(3 5.30407e-16 0)
(3 2.40058e-16 0)
(3 -4.62192e-16 0)
(3 -3.43879e-16 0)
(3 -3.91201e-16 0)
(3 -3.85033e-16 0)
(3 -7.20323e-16 0)
(3 -5.54903e-16 0)
(3 -9.88179e-16 0)
(3 -2.05235e-15 0)
(3 -2.67783e-15 0)
(3 -4.3335e-15 0)
(3 -5.44749e-15 0)
(3 -4.74666e-15 0)
(3 -4.10496e-15 0)
(3 -2.44306e-15 0)
(3 -2.45608e-16 0)
(3 4.19417e-16 0)
(3 6.28283e-16 0)
(3 6.24504e-16 0)
(3 1.10499e-15 0)
(3 1.24811e-15 0)
(3 6.41959e-16 0)
(3 -4.48041e-16 0)
(3 -8.88726e-16 0)
(3 -2.21633e-15 0)
(3 -2.16056e-15 0)
(3 -1.08029e-15 0)
(3 -3.08162e-16 0)
(3 4.19569e-17 0)
(3 1.04225e-15 0)
(3 1.69527e-16 0)
(3 -1.58406e-15 0)
(3 -2.5992e-15 0)
(3 -2.98027e-15 0)
(3 -2.62022e-15 0)
(3 -1.95714e-15 0)
(3 -1.7807e-15 0)
(3 -1.65967e-15 0)
(3 -1.4565e-15 0)
(3 -1.49073e-15 0)
(3 -2.72236e-15 0)
(3 -3.34927e-15 0)
(3 -3.06925e-15 0)
(3 -2.61087e-15 0)
(3 -1.32848e-15 0)
(3 -4.01632e-16 0)
(3 2.58839e-16 0)
(3 1.67141e-16 0)
(3 -3.86487e-16 0)
(3 -1.12863e-15 0)
(3 -1.44444e-15 0)
(3 2.3944e-16 0)
(3 9.82102e-16 0)
(3 1.497e-15 0)
(3 1.95851e-15 0)
(3 1.96039e-15 0)
(3 1.60129e-15 0)
(3 1.57187e-15 0)
(3 5.95616e-16 0)
(3 7.91844e-17 0)
(3 5.04514e-18 0)
(3 9.03081e-16 0)
(3 2.81876e-15 0)
(3 3.62844e-15 0)
(3 3.4684e-15 0)
(3 3.21713e-15 0)
(3 2.4356e-15 0)
(3 2.03389e-15 0)
(3 5.50873e-16 0)
(3 -4.17293e-17 0)
(3 2.87879e-17 0)
(3 1.39363e-16 0)
(3 5.72818e-16 0)
(3 7.08261e-16 0)
(3 2.1688e-16 0)
(3 -1.60356e-16 0)
(3 -8.7176e-16 0)
(3 -1.18684e-15 0)
(3 -1.04899e-15 0)
(3 -9.83419e-16 0)
(3 -5.8583e-16 0)
(3 6.02468e-18 0)
(3 3.21264e-16 0)
(3 -9.70519e-17 0)
(3 -3.59584e-17 0)
(3 -3.92201e-16 0)
(3 -1.29309e-15 0)
(3 -1.59527e-15 0)
(3 -1.27254e-15 0)
(3 -1.06544e-15 0)
(3 -2.60492e-16 0)
(3 -1.81078e-16 0)
(3 -4.14118e-16 0)
(3 -2.78844e-16 0)
(3 -7.97584e-16 0)
(3 -8.68101e-16 0)
(3 -1.54522e-15 0)
(3 -1.58628e-15 0)
(3 -1.47272e-15 0)
(3 -8.8971e-16 0)
(3 -5.16347e-16 0)
(3 -2.3231e-16 0)
(3 -8.83054e-17 0)
(3 -2.06151e-16 0)
(3 -1.19694e-15 0)
(3 -3.9051e-15 0)
(3 -5.68467e-15 0)
(3 -5.79958e-15 0)
(3 -4.67749e-15 0)
(3 -2.77349e-15 0)
(3 -1.52801e-15 0)
(3 -3.32884e-17 0)
(3 6.12759e-16 0)
(3 1.42472e-15 0)
(3 1.40468e-15 0)
(3 1.18289e-15 0)
(3 5.33853e-16 0)
(3 1.72558e-16 0)
(3 -7.51989e-16 0)
(3 -1.95626e-15 0)
(3 -2.44121e-15 0)
(3 -1.73041e-15 0)
(3 -1.23895e-15 0)
(3 9.68892e-16 0)
(3 1.52487e-15 0)
(3 1.78114e-15 0)
(3 1.32236e-15 0)
(3 3.80261e-16 0)
(3 1.28594e-17 0)
(3 -6.12228e-16 0)
(3 -1.24026e-15 0)
(3 -1.30232e-15 0)
(3 -9.07601e-16 0)
(3 -5.24036e-16 0)
(3 -6.521e-16 0)
(3 -1.06051e-15 0)
(3 -6.72833e-16 0)
(3 -4.62349e-16 0)
(3 -5.65044e-16 0)
(3 2.00971e-17 0)
(3 3.28781e-16 0)
(3 3.12038e-16 0)
(3 -2.75002e-16 0)
(3 -2.22187e-16 0)
(3 2.08277e-16 0)
(3 5.51367e-16 0)
(3 6.55208e-16 0)
(3 1.42872e-15 0)
(3 1.69663e-15 0)
(3 1.96276e-15 0)
(3 2.57659e-15 0)
(3 2.74651e-15 0)
(3 1.72638e-15 0)
(3 -5.85743e-17 0)
(3 -6.08213e-16 0)
(3 -9.37299e-16 0)
(3 -4.98676e-16 0)
(3 1.06197e-15 0)
(3 2.81991e-15 0)
(3 3.41687e-15 0)
(3 1.84072e-15 0)
(3 3.0022e-16 0)
(3 3.66183e-17 0)
(3 -4.35529e-16 0)
(3 -1.06802e-15 0)
(3 -6.19451e-18 0)
(3 -3.55905e-17 0)
(3 4.04105e-16 0)
(3 1.77959e-15 0)
(3 2.07825e-15 0)
(3 1.56588e-15 0)
(3 1.38097e-15 0)
(3 1.462e-15 0)
(3 1.57426e-15 0)
(3 1.05267e-15 0)
(3 1.6185e-16 0)
(3 -3.10815e-16 0)
(3 -7.52646e-16 0)
(3 -1.11382e-15 0)
(3 -1.26461e-15 0)
(3 -1.79918e-15 0)
(3 -1.49271e-15 0)
(3 -1.52738e-15 0)
(3 -1.51117e-15 0)
(3 -2.67827e-17 0)
(3 -1.31119e-16 0)
(3 -6.37952e-16 0)
(3 -5.33414e-16 0)
(3 7.6357e-16 0)
(3 1.47315e-15 0)
(3 8.73562e-16 0)
(3 -2.11977e-16 0)
(3 -6.56336e-16 0)
(3 -5.81097e-16 0)
(3 7.2611e-17 0)
(3 8.37305e-16 0)
(3 1.41093e-15 0)
(3 1.81786e-15 0)
(3 1.64736e-15 0)
(3 5.49341e-16 0)
(3 -2.08637e-15 0)
(3 -3.09937e-15 0)
(3 -2.14757e-15 0)
(3 -1.64939e-15 0)
(3 -1.32475e-15 0)
(3 -1.11664e-15 0)
(3 -6.81391e-16 0)
(3 -2.61439e-17 0)
(3 5.91949e-17 0)
(3 3.82544e-16 0)
(3 -3.43799e-17 0)
(3 -3.6849e-16 0)
(3 -5.87526e-16 0)
(3 -4.27443e-16 0)
(3 -5.24811e-16 0)
(3 -1.1221e-15 0)
(3 -7.12609e-16 0)
(3 9.2229e-16 0)
(3 1.19473e-15 0)
(3 2.20828e-15 0)
(3 2.22009e-15 0)
(3 1.03085e-15 0)
(3 4.84098e-16 0)
(3 1.58946e-17 0)
(3 -1.81736e-16 0)
(3 -9.75284e-16 0)
(3 -2.12167e-15 0)
(3 -2.37728e-15 0)
(3 -2.14241e-15 0)
(3 -1.48567e-15 0)
(3 -1.31442e-15 0)
(3 -9.82781e-16 0)
(3 -3.42129e-16 0)
(3 8.83813e-17 0)
(3 2.29654e-16 0)
(3 1.91727e-17 0)
(3 -6.25277e-16 0)
(3 -1.4263e-15 0)
(3 -3.04122e-15 0)
(3 -2.72957e-15 0)
(3 -6.46852e-16 0)
(3 7.11138e-16 0)
(3 1.07763e-15 0)
(3 1.09211e-15 0)
(3 2.27612e-15 0)
(3 2.98269e-15 0)
(3 3.3565e-15 0)
(3 3.07306e-15 0)
(3 2.38758e-15 0)
(3 7.69499e-16 0)
(3 -1.84704e-15 0)
(3 -2.10452e-15 0)
(3 -1.48653e-15 0)
(3 -8.38954e-16 0)
(3 -2.69037e-16 0)
(3 2.18291e-16 0)
(3 8.49479e-17 0)
(3 -1.08403e-15 0)
(3 -1.58938e-15 0)
(3 -1.32775e-15 0)
(3 -1.2036e-15 0)
(3 7.85126e-17 0)
(3 2.52909e-16 0)
(3 7.64092e-16 0)
(3 1.44242e-15 0)
(3 2.41577e-15 0)
(3 2.7932e-15 0)
(3 3.37948e-15 0)
(3 3.1933e-15 0)
(3 2.69101e-15 0)
(3 1.92724e-15 0)
(3 1.70848e-15 0)
(3 -2.2507e-17 0)
(3 -9.82479e-16 0)
(3 -1.00594e-15 0)
(3 -5.33162e-16 0)
(3 -4.6173e-16 0)
(3 -1.80419e-16 0)
(3 1.73086e-15 0)
(3 2.23176e-15 0)
(3 2.47947e-15 0)
(3 2.13313e-15 0)
(3 1.76105e-15 0)
(3 1.93738e-15 0)
(3 2.18286e-15 0)
(3 2.13332e-15 0)
(3 2.10221e-15 0)
(3 2.01967e-15 0)
(3 2.31812e-15 0)
(3 2.20327e-15 0)
(3 2.44815e-15 0)
(3 2.29838e-15 0)
(3 2.1416e-15 0)
(3 1.99078e-15 0)
(3 7.90655e-16 0)
(3 2.16221e-16 0)
(3 -1.57155e-16 0)
(3 7.45873e-16 0)
(3 1.47971e-15 0)
(3 1.43445e-15 0)
(3 7.66948e-16 0)
(3 3.92965e-16 0)
(3 8.67893e-17 0)
(3 2.33243e-17 0)
(3 -7.23684e-17 0)
(3 -5.10467e-16 0)
(3 -1.14621e-15 0)
(3 -1.27333e-15 0)
(3 -9.63265e-16 0)
(3 -7.70728e-16 0)