/*--------------------------------*- C++ -*----------------------------------*\
  =========                 |
  \\      /  F ield         | OpenFOAM: The Open Source CFD Toolbox
   \\    /   O peration     | Website:  https://openfoam.org
    \\  /    A nd           | Version:  7
     \\/     M anipulation  |
\*---------------------------------------------------------------------------*/
FoamFile
{
    version     2.0;
    format      ascii;
    class       volVectorField;
    location    "1.9";
    object      U;
}
// * * * * * * * * * * * * * * * * * * * * * * * * * * * * * * * * * * * * * //

dimensions      [0 1 -1 0 0 0 0];

internalField   nonuniform List<vector> 
73728
(
(3 -3.61475e-18 0)
(3 3.25808e-17 0)
(3 6.88008e-17 0)
(3 8.66514e-17 0)
(3 -1.57876e-16 0)
(3 -1.30212e-16 0)
(3 -1.73279e-17 0)
(3 -1.61594e-16 0)
(3 3.99006e-17 0)
(3 -7.35801e-17 0)
(3 2.88767e-17 0)
(3 -2.53553e-17 0)
(3 -1.33361e-16 0)
(3 7.42046e-17 0)
(3 1.04779e-15 0)
(3 2.15147e-15 0)
(3 1.91976e-15 0)
(3 1.18678e-15 0)
(3 -4.4033e-18 0)
(3 -1.08875e-15 0)
(3 -8.91772e-16 0)
(3 -6.69941e-16 0)
(3 -2.11756e-16 0)
(3 -5.11424e-18 0)
(3 -6.60155e-18 0)
(3 3.52616e-16 0)
(3 2.68534e-16 0)
(3 6.66853e-16 0)
(3 5.72131e-16 0)
(3 4.86359e-16 0)
(3 4.11996e-16 0)
(3 -2.25048e-16 0)
(3 -1.48083e-15 0)
(3 -1.84582e-15 0)
(3 -1.74398e-15 0)
(3 -1.66208e-15 0)
(3 -1.28645e-15 0)
(3 -1.20183e-15 0)
(3 -1.05019e-15 0)
(3 -9.41116e-16 0)
(3 -1.42309e-15 0)
(3 -1.62122e-15 0)
(3 -2.30214e-16 0)
(3 1.98515e-17 0)
(3 5.28126e-16 0)
(3 2.66564e-15 0)
(3 3.92023e-15 0)
(3 3.05694e-15 0)
(3 1.79211e-15 0)
(3 1.60095e-15 0)
(3 7.06206e-16 0)
(3 -2.9372e-16 0)
(3 -4.26824e-16 0)
(3 -5.33567e-16 0)
(3 -5.25758e-16 0)
(3 -1.26402e-15 0)
(3 -1.93421e-15 0)
(3 -1.24666e-15 0)
(3 1.9752e-16 0)
(3 2.33394e-16 0)
(3 7.51361e-16 0)
(3 -9.0013e-17 0)
(3 -4.25994e-16 0)
(3 -5.35488e-16 0)
(3 -1.74746e-16 0)
(3 6.44587e-16 0)
(3 1.29533e-15 0)
(3 1.10214e-15 0)
(3 -3.97688e-16 0)
(3 -4.64011e-16 0)
(3 -1.00307e-16 0)
(3 9.78897e-16 0)
(3 5.10402e-16 0)
(3 -2.39746e-17 0)
(3 -3.05435e-16 0)
(3 -2.91392e-16 0)
(3 -2.90511e-16 0)
(3 3.81413e-16 0)
(3 9.06301e-16 0)
(3 5.63795e-16 0)
(3 -5.28597e-16 0)
(3 -1.19524e-15 0)
(3 -7.52879e-16 0)
(3 9.09066e-17 0)
(3 2.79843e-16 0)
(3 7.66923e-17 0)
(3 -9.01208e-16 0)
(3 -1.24713e-15 0)
(3 -1.69487e-15 0)
(3 -1.59837e-15 0)
(3 -1.4778e-15 0)
(3 -1.75119e-15 0)
(3 -1.58586e-15 0)
(3 -2.37009e-16 0)
(3 -3.39491e-16 0)
(3 3.2864e-16 0)
(3 3.61395e-17 0)
(3 -7.7369e-17 0)
(3 2.89695e-16 0)
(3 4.60436e-16 0)
(3 2.34076e-16 0)
(3 3.29611e-16 0)
(3 4.64884e-16 0)
(3 3.9297e-16 0)
(3 4.2832e-16 0)
(3 2.61473e-16 0)
(3 1.09754e-16 0)
(3 2.06085e-17 0)
(3 2.61797e-16 0)
(3 8.05151e-16 0)
(3 1.93651e-15 0)
(3 1.77195e-15 0)
(3 1.49317e-15 0)
(3 1.04572e-15 0)
(3 5.68745e-16 0)
(3 -5.48389e-16 0)
(3 -1.14554e-15 0)
(3 -1.15899e-15 0)
(3 -9.48136e-16 0)
(3 -5.04272e-16 0)
(3 6.07705e-16 0)
(3 1.70919e-15 0)
(3 1.73085e-15 0)
(3 1.52414e-15 0)
(3 6.47182e-16 0)
(3 7.891e-17 0)
(3 -4.72077e-16 0)
(3 -1.26763e-15 0)
(3 -1.9767e-15 0)
(3 -1.98854e-15 0)
(3 -2.01673e-15 0)
(3 -2.5919e-15 0)
(3 -3.26511e-15 0)
(3 -3.80396e-15 0)
(3 -3.18759e-15 0)
(3 -1.9177e-15 0)
(3 -2.63983e-15 0)
(3 -2.95765e-15 0)
(3 -1.01909e-15 0)
(3 -2.64001e-16 0)
(3 7.41221e-16 0)
(3 3.33299e-15 0)
(3 6.18443e-15 0)
(3 5.81195e-15 0)
(3 2.57776e-15 0)
(3 1.56935e-15 0)
(3 6.52534e-16 0)
(3 -8.81501e-16 0)
(3 -1.21074e-15 0)
(3 -1.99486e-15 0)
(3 -1.78975e-15 0)
(3 -2.39419e-15 0)
(3 -2.21212e-15 0)
(3 -1.25162e-15 0)
(3 4.00914e-16 0)
(3 1.89262e-16 0)
(3 2.65356e-16 0)
(3 -3.44242e-16 0)
(3 -2.62355e-16 0)
(3 -2.10931e-16 0)
(3 3.42382e-17 0)
(3 7.73555e-16 0)
(3 1.70343e-15 0)
(3 1.1262e-15 0)
(3 -5.24292e-16 0)
(3 -1.615e-15 0)
(3 -1.37973e-15 0)
(3 -1.30605e-16 0)
(3 4.3901e-17 0)
(3 -2.5231e-16 0)
(3 -1.69038e-16 0)
(3 1.87358e-16 0)
(3 8.67439e-16 0)
(3 1.59307e-15 0)
(3 1.64723e-15 0)
(3 9.69949e-16 0)
(3 -7.67914e-16 0)
(3 -1.52155e-15 0)
(3 -7.45443e-16 0)
(3 4.70982e-16 0)
(3 5.86996e-16 0)
(3 -4.92764e-16 0)
(3 -1.07594e-15 0)
(3 -2.19988e-15 0)
(3 -3.36637e-15 0)
(3 -3.44128e-15 0)
(3 -2.51052e-15 0)
(3 -1.55579e-15 0)
(3 -1.41451e-15 0)
(3 -3.08464e-16 0)
(3 1.15335e-16 0)
(3 1.21447e-16 0)
(3 4.4535e-17 0)
(3 -1.35263e-16 0)
(3 -3.72191e-17 0)
(3 2.32731e-16 0)
(3 5.60011e-16 0)
(3 3.7814e-16 0)
(3 6.75597e-16 0)
(3 1.39641e-15 0)
(3 2.01504e-15 0)
(3 1.92936e-15 0)
(3 1.06756e-15 0)
(3 3.11367e-16 0)
(3 7.76009e-16 0)
(3 8.56662e-16 0)
(3 5.5599e-16 0)
(3 2.14561e-16 0)
(3 2.46545e-16 0)
(3 5.50637e-16 0)
(3 9.48267e-16 0)
(3 7.60229e-16 0)
(3 6.2946e-17 0)
(3 3.13267e-16 0)
(3 2.56673e-16 0)
(3 5.64879e-16 0)
(3 7.81533e-16 0)
(3 9.14422e-16 0)
(3 1.29939e-15 0)
(3 1.23703e-15 0)
(3 3.9936e-16 0)
(3 -9.63049e-16 0)
(3 -1.18845e-15 0)
(3 -1.74641e-15 0)
(3 -1.85728e-15 0)
(3 -2.07434e-15 0)
(3 -2.57109e-15 0)
(3 -3.12548e-15 0)
(3 -3.28405e-15 0)
(3 -3.20486e-15 0)
(3 -3.0243e-15 0)
(3 -2.99483e-15 0)
(3 -3.37975e-15 0)
(3 -1.70226e-15 0)
(3 1.74763e-16 0)
(3 8.81418e-16 0)
(3 1.29101e-15 0)
(3 2.33372e-15 0)
(3 3.41915e-15 0)
(3 4.01925e-15 0)
(3 4.10911e-15 0)
(3 3.10803e-15 0)
(3 1.33475e-15 0)
(3 -5.69225e-16 0)
(3 -9.07585e-16 0)
(3 -1.6167e-15 0)
(3 -2.07905e-15 0)
(3 -2.62607e-15 0)
(3 -2.55848e-15 0)
(3 -1.68346e-15 0)
(3 -3.52106e-16 0)
(3 -6.06949e-16 0)
(3 -1.19521e-15 0)
(3 -7.08706e-16 0)
(3 -2.33861e-16 0)
(3 -3.9281e-16 0)
(3 -1.18837e-15 0)
(3 -1.26707e-15 0)
(3 -6.33243e-16 0)
(3 -5.11477e-16 0)
(3 -4.11972e-16 0)
(3 -8.93787e-16 0)
(3 -1.37447e-15 0)
(3 -1.18204e-15 0)
(3 -7.6556e-16 0)
(3 4.79244e-17 0)
(3 5.81475e-16 0)
(3 1.57305e-15 0)
(3 1.8599e-15 0)
(3 1.92071e-15 0)
(3 1.33978e-15 0)
(3 3.93567e-16 0)
(3 4.03036e-16 0)
(3 4.29927e-16 0)
(3 -4.86362e-16 0)
(3 -1.13447e-16 0)
(3 -3.21039e-16 0)
(3 -6.00081e-16 0)
(3 -5.1889e-16 0)
(3 -8.44656e-16 0)
(3 -2.08367e-15 0)
(3 -2.96409e-15 0)
(3 -1.77797e-15 0)
(3 -4.68953e-16 0)
(3 3.04329e-17 0)
(3 4.80693e-16 0)
(3 8.07591e-16 0)
(3 1.81882e-16 0)
(3 9.75263e-17 0)
(3 2.46981e-16 0)
(3 -6.32277e-17 0)
(3 -2.63191e-16 0)
(3 -3.18398e-16 0)
(3 -7.30735e-16 0)
(3 -9.37697e-16 0)
(3 -6.19921e-16 0)
(3 7.45289e-17 0)
(3 7.73719e-16 0)
(3 8.2591e-16 0)
(3 9.74878e-16 0)
(3 4.87302e-16 0)
(3 9.00362e-17 0)
(3 -7.00164e-17 0)
(3 1.44801e-16 0)
(3 3.28675e-16 0)
(3 9.12231e-16 0)
(3 1.19658e-15 0)
(3 1.43625e-15 0)
(3 1.1949e-15 0)
(3 1.32129e-15 0)
(3 1.2629e-15 0)
(3 1.67935e-15 0)
(3 2.31762e-15 0)
(3 1.76396e-15 0)
(3 2.48575e-16 0)
(3 -5.36219e-16 0)
(3 -7.90747e-17 0)
(3 -1.83363e-16 0)
(3 -8.34295e-16 0)
(3 -1.45818e-15 0)
(3 -2.10064e-15 0)
(3 -2.21939e-15 0)
(3 -1.84486e-15 0)
(3 -1.97346e-15 0)
(3 -1.43354e-15 0)
(3 -1.61282e-15 0)
(3 -1.96466e-15 0)
(3 -2.3902e-15 0)
(3 -1.40923e-15 0)
(3 -5.51481e-16 0)
(3 -4.55183e-17 0)
(3 1.06108e-15 0)
(3 1.80567e-15 0)
(3 1.99852e-15 0)
(3 1.58915e-15 0)
(3 1.41831e-15 0)
(3 1.30343e-15 0)
(3 1.43932e-15 0)
(3 1.78378e-15 0)
(3 9.54754e-16 0)
(3 4.2169e-17 0)
(3 -7.22688e-17 0)
(3 -6.15624e-16 0)
(3 -8.78247e-16 0)
(3 -1.66851e-15 0)
(3 -2.31606e-15 0)
(3 -2.48109e-15 0)
(3 -1.88027e-15 0)
(3 -9.07758e-16 0)
(3 -3.34617e-16 0)
(3 -6.21e-16 0)
(3 -6.59242e-16 0)
(3 -1.50792e-15 0)
(3 -2.17736e-15 0)
(3 -2.66091e-15 0)
(3 -2.60491e-15 0)
(3 -2.49396e-15 0)
(3 -2.07408e-15 0)
(3 -1.05728e-15 0)
(3 -3.21779e-16 0)
(3 6.72241e-16 0)
(3 1.69899e-15 0)
(3 2.12513e-15 0)
(3 2.20816e-15 0)
(3 1.65409e-15 0)
(3 6.38026e-16 0)
(3 -1.10978e-17 0)
(3 -2.21885e-16 0)
(3 -4.31084e-17 0)
(3 -7.9649e-16 0)
(3 -8.66353e-16 0)
(3 -1.68582e-15 0)
(3 -2.23145e-15 0)
(3 -1.92743e-15 0)
(3 -1.53663e-15 0)
(3 -1.04644e-15 0)
(3 -7.4947e-16 0)
(3 -6.83228e-16 0)
(3 5.37929e-17 0)
(3 1.83e-16 0)
(3 4.27387e-16 0)
(3 9.3533e-16 0)
(3 1.94675e-15 0)
(3 2.47279e-15 0)
(3 -3.61122e-17 0)
(3 -1.06187e-16 0)
(3 1.94698e-16 0)
(3 1.85136e-16 0)
(3 -8.99759e-17 0)
(3 -5.20555e-16 0)
(3 -9.22517e-16 0)
(3 -1.98277e-15 0)
(3 -3.19609e-15 0)
(3 -2.72051e-15 0)
(3 -6.51677e-16 0)
(3 1.33534e-15 0)
(3 1.53871e-15 0)
(3 5.86427e-16 0)
(3 7.76429e-16 0)
(3 1.03875e-15 0)
(3 1.44082e-15 0)
(3 1.59668e-15 0)
(3 7.04482e-16 0)
(3 8.17904e-16 0)
(3 7.71167e-16 0)
(3 2.64401e-16 0)
(3 1.66006e-16 0)
(3 5.33406e-16 0)
(3 7.41216e-16 0)
(3 1.37544e-15 0)
(3 1.35622e-15 0)
(3 8.36792e-16 0)
(3 1.00203e-15 0)
(3 1.25983e-15 0)
(3 7.9641e-16 0)
(3 -5.82731e-17 0)
(3 -1.29593e-15 0)
(3 -2.06711e-15 0)
(3 -1.82066e-15 0)
(3 -8.88371e-16 0)
(3 -7.44057e-16 0)
(3 -7.94928e-16 0)
(3 -1.38374e-15 0)
(3 -2.03891e-15 0)
(3 -1.55607e-15 0)
(3 -4.58941e-16 0)
(3 -8.38986e-18 0)
(3 2.11355e-16 0)
(3 3.85655e-16 0)
(3 4.35262e-16 0)
(3 7.684e-16 0)
(3 -3.05732e-17 0)
(3 -6.58643e-16 0)
(3 -3.53168e-16 0)
(3 3.47815e-16 0)
(3 5.97783e-16 0)
(3 -1.09661e-16 0)
(3 -4.83443e-16 0)
(3 -1.25085e-15 0)
(3 -1.43482e-15 0)
(3 -1.39284e-15 0)
(3 -2.08467e-15 0)
(3 -1.96248e-15 0)
(3 -7.00482e-16 0)
(3 -1.49329e-16 0)
(3 1.05513e-16 0)
(3 1.57412e-16 0)
(3 1.12871e-16 0)
(3 -9.94315e-16 0)
(3 -2.53555e-15 0)
(3 -2.59542e-15 0)
(3 -3.14349e-15 0)
(3 -2.02562e-15 0)
(3 -3.185e-16 0)
(3 3.09468e-16 0)
(3 8.40475e-16 0)
(3 8.54656e-16 0)
(3 1.2669e-15 0)
(3 1.55989e-15 0)
(3 1.25396e-15 0)
(3 6.76867e-16 0)
(3 -1.1307e-16 0)
(3 -1.30055e-15 0)
(3 -2.82823e-15 0)
(3 -2.66832e-15 0)
(3 -7.83318e-16 0)
(3 -4.17775e-17 0)
(3 -7.04943e-16 0)
(3 -5.52684e-16 0)
(3 2.61193e-16 0)
(3 4.03202e-16 0)
(3 4.14291e-16 0)
(3 9.56779e-16 0)
(3 7.78849e-16 0)
(3 9.2985e-16 0)
(3 1.23729e-15 0)
(3 9.38661e-16 0)
(3 4.19153e-16 0)
(3 1.72475e-15 0)
(3 3.3178e-15 0)
(3 -8.95106e-17 0)
(3 -4.19259e-16 0)
(3 -2.01573e-16 0)
(3 8.72712e-17 0)
(3 1.11247e-16 0)
(3 3.77169e-16 0)
(3 3.35696e-16 0)
(3 -6.76093e-16 0)
(3 -1.59877e-15 0)
(3 -2.25317e-15 0)
(3 -3.70413e-16 0)
(3 1.22021e-15 0)
(3 1.4486e-15 0)
(3 1.35302e-15 0)
(3 1.59231e-15 0)
(3 1.53952e-15 0)
(3 1.55015e-15 0)
(3 2.03209e-15 0)
(3 6.693e-16 0)
(3 -2.02743e-16 0)
(3 2.58047e-16 0)
(3 6.6008e-16 0)
(3 9.99524e-16 0)
(3 5.3261e-17 0)
(3 -1.35164e-15 0)
(3 -1.41902e-15 0)
(3 -2.00945e-16 0)
(3 1.83007e-16 0)
(3 4.16586e-17 0)
(3 4.12803e-17 0)
(3 3.38611e-16 0)
(3 -2.48182e-16 0)
(3 -1.00885e-15 0)
(3 -1.20521e-15 0)
(3 -7.07729e-16 0)
(3 1.24562e-16 0)
(3 5.63772e-16 0)
(3 7.70145e-16 0)
(3 7.64786e-16 0)
(3 1.60631e-16 0)
(3 -8.81207e-16 0)
(3 -1.78422e-15 0)
(3 -1.35547e-15 0)
(3 -1.03e-15 0)
(3 -1.44838e-16 0)
(3 1.79884e-16 0)
(3 2.51434e-16 0)
(3 3.3043e-16 0)
(3 2.32392e-16 0)
(3 -6.51827e-17 0)
(3 2.25591e-16 0)
(3 -2.73512e-17 0)
(3 -3.92852e-16 0)
(3 -9.38734e-16 0)
(3 -1.74943e-15 0)
(3 -1.71992e-15 0)
(3 -1.24547e-15 0)
(3 -7.53417e-16 0)
(3 2.7958e-16 0)
(3 7.5145e-16 0)
(3 4.89921e-16 0)
(3 9.92216e-16 0)
(3 1.3984e-15 0)
(3 -4.80543e-16 0)
(3 -1.44152e-15 0)
(3 -1.56383e-15 0)
(3 -1.22681e-15 0)
(3 -1.86963e-15 0)
(3 -9.89376e-16 0)
(3 1.97769e-16 0)
(3 5.90045e-16 0)
(3 5.69525e-17 0)
(3 3.3762e-17 0)
(3 -3.70284e-16 0)
(3 -1.29485e-15 0)
(3 -2.25261e-15 0)
(3 -2.22042e-15 0)
(3 -2.37978e-15 0)
(3 -2.66811e-15 0)
(3 -3.45416e-15 0)
(3 -3.09738e-15 0)
(3 -2.07525e-15 0)
(3 -3.06326e-16 0)
(3 3.02173e-16 0)
(3 1.86159e-15 0)
(3 2.25979e-15 0)
(3 1.92982e-15 0)
(3 1.67808e-15 0)
(3 1.4267e-15 0)
(3 1.31314e-15 0)
(3 1.33706e-15 0)
(3 1.37096e-15 0)
(3 1.42323e-15 0)
(3 1.27685e-15 0)
(3 1.41189e-15 0)
(3 2.22827e-15 0)
(3 -4.07905e-18 0)
(3 -6.70357e-17 0)
(3 -4.27633e-16 0)
(3 -4.8023e-16 0)
(3 -1.20468e-16 0)
(3 5.43061e-16 0)
(3 5.4099e-16 0)
(3 6.027e-16 0)
(3 6.19341e-16 0)
(3 9.81954e-17 0)
(3 7.00298e-17 0)
(3 5.73173e-16 0)
(3 1.41662e-15 0)
(3 1.61464e-15 0)
(3 1.38006e-15 0)
(3 1.11008e-15 0)
(3 8.40339e-16 0)
(3 6.73259e-16 0)
(3 7.20097e-17 0)
(3 -4.34843e-16 0)
(3 -5.89568e-16 0)
(3 -3.75918e-16 0)
(3 6.06969e-17 0)
(3 -6.75981e-17 0)
(3 -1.26991e-15 0)
(3 -2.68423e-15 0)
(3 -3.11275e-15 0)
(3 -2.31797e-15 0)
(3 -2.29196e-15 0)
(3 -2.43911e-15 0)
(3 -1.74631e-15 0)
(3 -1.56856e-15 0)
(3 -1.2293e-15 0)
(3 -2.75388e-16 0)
(3 1.0615e-16 0)
(3 3.94442e-16 0)
(3 1.33869e-15 0)
(3 1.97507e-15 0)
(3 2.36787e-15 0)
(3 2.56135e-15 0)
(3 1.59689e-15 0)
(3 -1.40742e-15 0)
(3 -3.19817e-15 0)
(3 -3.24112e-15 0)
(3 -1.38314e-15 0)
(3 -2.47904e-16 0)
(3 2.58688e-17 0)
(3 3.01453e-16 0)
(3 -6.52451e-17 0)
(3 -1.03802e-16 0)
(3 1.07648e-16 0)
(3 -4.5092e-17 0)
(3 -8.25612e-16 0)
(3 -1.07666e-15 0)
(3 -1.51328e-15 0)
(3 -1.95895e-15 0)
(3 -1.69933e-15 0)
(3 -5.95996e-16 0)
(3 1.25458e-16 0)
(3 -5.54032e-16 0)
(3 -3.81388e-16 0)
(3 -2.18788e-16 0)
(3 4.63635e-16 0)
(3 8.47986e-16 0)
(3 -1.20068e-16 0)
(3 -6.1544e-16 0)
(3 4.99831e-16 0)
(3 1.34136e-15 0)
(3 4.22514e-16 0)
(3 3.41892e-16 0)
(3 3.99177e-16 0)
(3 -1.20829e-15 0)
(3 -1.93473e-15 0)
(3 -2.31034e-15 0)
(3 -2.89756e-15 0)
(3 -2.79189e-15 0)
(3 -2.76616e-15 0)
(3 -3.02433e-15 0)
(3 -2.80581e-15 0)
(3 -2.36222e-15 0)
(3 -1.72165e-15 0)
(3 -1.94775e-15 0)
(3 -1.84794e-15 0)
(3 -8.74261e-16 0)
(3 1.5576e-15 0)
(3 2.19733e-15 0)
(3 1.0963e-15 0)
(3 5.7759e-16 0)
(3 7.53752e-16 0)
(3 1.27035e-15 0)
(3 1.93866e-15 0)
(3 2.3135e-15 0)
(3 3.2169e-15 0)
(3 3.1531e-15 0)
(3 3.20979e-15 0)
(3 2.68419e-15 0)
(3 1.14074e-17 0)
(3 -1.86199e-16 0)
(3 -1.10145e-16 0)
(3 -8.19349e-17 0)
(3 -2.54623e-18 0)
(3 -2.18561e-16 0)
(3 -2.25056e-16 0)
(3 1.74319e-16 0)
(3 9.62472e-16 0)
(3 1.99816e-15 0)
(3 1.65041e-15 0)
(3 8.8063e-16 0)
(3 1.37071e-15 0)
(3 1.79707e-15 0)
(3 1.29898e-15 0)
(3 1.28127e-15 0)
(3 6.75866e-16 0)
(3 -6.5612e-17 0)
(3 5.494e-17 0)
(3 1.38599e-16 0)
(3 -4.9521e-16 0)
(3 -1.06425e-15 0)
(3 -1.31144e-15 0)
(3 -1.08515e-15 0)
(3 -1.66004e-15 0)
(3 -2.42428e-15 0)
(3 -2.19617e-15 0)
(3 -1.53349e-15 0)
(3 -1.25535e-15 0)
(3 -9.85646e-16 0)
(3 -8.53514e-16 0)
(3 -3.05335e-16 0)
(3 1.81216e-16 0)
(3 -7.83684e-16 0)
(3 -1.33905e-16 0)
(3 3.84709e-16 0)
(3 1.17026e-15 0)
(3 2.25457e-15 0)
(3 1.45202e-15 0)
(3 9.79591e-16 0)
(3 5.00224e-16 0)
(3 -5.49846e-16 0)
(3 -1.91798e-15 0)
(3 -2.5669e-15 0)
(3 -2.1814e-15 0)
(3 -1.49788e-15 0)
(3 -7.90559e-16 0)
(3 -1.15584e-15 0)
(3 -1.46125e-15 0)
(3 -1.55656e-15 0)
(3 -1.69838e-15 0)
(3 -2.03745e-15 0)
(3 -1.54057e-15 0)
(3 -1.55259e-15 0)
(3 -1.62687e-15 0)
(3 -2.00253e-15 0)
(3 -1.57085e-15 0)
(3 -7.91311e-16 0)
(3 -2.70004e-16 0)
(3 8.56584e-16 0)
(3 1.39523e-15 0)
(3 1.25956e-15 0)
(3 1.60149e-15 0)
(3 1.47618e-15 0)
(3 9.13676e-16 0)
(3 1.79623e-16 0)
(3 1.40916e-15 0)
(3 1.78782e-15 0)
(3 1.4682e-15 0)
(3 -6.44908e-17 0)
(3 -4.31215e-16 0)
(3 -1.44198e-15 0)
(3 -3.20335e-15 0)
(3 -3.08397e-15 0)
(3 -2.39223e-15 0)
(3 -2.13069e-15 0)
(3 -1.91271e-15 0)
(3 -1.12373e-15 0)
(3 -8.78725e-16 0)
(3 -1.96579e-15 0)
(3 -2.1341e-15 0)
(3 -2.15689e-15 0)
(3 -2.08271e-15 0)
(3 -2.10812e-15 0)
(3 3.25633e-16 0)
(3 1.06233e-15 0)
(3 1.04691e-15 0)
(3 8.30044e-16 0)
(3 8.97305e-16 0)
(3 1.18624e-15 0)
(3 1.14083e-15 0)
(3 4.4946e-16 0)
(3 1.02171e-15 0)
(3 1.76047e-15 0)
(3 1.96086e-15 0)
(3 1.55867e-15 0)
(3 -1.4763e-16 0)
(3 3.95962e-17 0)
(3 5.99368e-16 0)
(3 4.10836e-16 0)
(3 -3.01666e-16 0)
(3 -7.52506e-16 0)
(3 -5.46532e-16 0)
(3 -1.70398e-16 0)
(3 1.31063e-16 0)
(3 1.52395e-15 0)
(3 2.35631e-15 0)
(3 1.69915e-15 0)
(3 7.95379e-16 0)
(3 1.03445e-15 0)
(3 1.79474e-15 0)
(3 1.57461e-15 0)
(3 7.10153e-16 0)
(3 4.55192e-16 0)
(3 9.19545e-16 0)
(3 1.47361e-15 0)
(3 1.74059e-15 0)
(3 8.6743e-16 0)
(3 -2.18054e-16 0)
(3 -5.50887e-16 0)
(3 -1.14016e-15 0)
(3 -1.80709e-15 0)
(3 -1.20612e-15 0)
(3 -1.0582e-15 0)
(3 -8.8702e-16 0)
(3 -7.30101e-16 0)
(3 -1.38054e-15 0)
(3 -1.04231e-15 0)
(3 -5.74536e-16 0)
(3 -3.04146e-16 0)
(3 1.1281e-15 0)
(3 1.38731e-15 0)
(3 9.55267e-16 0)
(3 1.05694e-15 0)
(3 5.80461e-16 0)
(3 3.28602e-16 0)
(3 -4.32071e-16 0)
(3 -1.48608e-15 0)
(3 -1.8691e-15 0)
(3 -2.02457e-15 0)
(3 -2.61273e-15 0)
(3 -2.25291e-15 0)
(3 -2.19541e-15 0)
(3 -2.1764e-15 0)
(3 -1.35644e-15 0)
(3 -1.77594e-15 0)
(3 -1.85522e-15 0)
(3 -1.40876e-15 0)
(3 -1.9202e-15 0)
(3 -1.99272e-15 0)
(3 -1.91934e-15 0)
(3 -1.51892e-16 0)
(3 6.12288e-16 0)
(3 5.96206e-16 0)
(3 1.98098e-16 0)
(3 3.12375e-15 0)
(3 2.62125e-15 0)
(3 2.92571e-15 0)
(3 3.16006e-15 0)
(3 2.78606e-15 0)
(3 2.81571e-15 0)
(3 2.45406e-15 0)
(3 2.39967e-15 0)
(3 1.8928e-15 0)
(3 1.91092e-15 0)
(3 1.37568e-15 0)
(3 -7.98822e-17 0)
(3 -4.53786e-16 0)
(3 -1.53486e-15 0)
(3 -2.02493e-15 0)
(3 -2.51317e-15 0)
(3 -2.40801e-15 0)
(3 -2.3733e-15 0)
(3 -1.98683e-15 0)
(3 -1.82777e-15 0)
(3 -2.64744e-15 0)
(3 -3.60445e-15 0)
(3 -2.84015e-15 0)
(3 -1.19916e-15 0)
(3 -1.01223e-15 0)
(3 -8.52248e-16 0)
(3 -9.82265e-16 0)
(3 3.24736e-16 0)
(3 1.31902e-15 0)
(3 1.03143e-15 0)
(3 4.51919e-16 0)
(3 -5.14953e-16 0)
(3 -1.2655e-15 0)
(3 2.53085e-16 0)
(3 1.79675e-15 0)
(3 9.91506e-16 0)
(3 -3.26074e-16 0)
(3 -7.80305e-17 0)
(3 5.19108e-16 0)
(3 6.88941e-16 0)
(3 8.33679e-16 0)
(3 5.37546e-16 0)
(3 5.30776e-16 0)
(3 3.58831e-16 0)
(3 1.68645e-16 0)
(3 4.03798e-16 0)
(3 3.57513e-16 0)
(3 3.37593e-16 0)
(3 8.69049e-17 0)
(3 1.00375e-18 0)
(3 -1.8162e-16 0)
(3 -5.14923e-17 0)
(3 -1.95524e-16 0)
(3 1.76131e-16 0)
(3 2.43603e-16 0)
(3 7.79251e-16 0)
(3 9.82184e-16 0)
(3 1.31393e-15 0)
(3 -1.37399e-16 0)
(3 -1.19436e-16 0)
(3 -2.38595e-16 0)
(3 -1.6721e-16 0)
(3 1.94151e-18 0)
(3 1.33758e-17 0)
(3 -7.82339e-16 0)
(3 -2.21043e-15 0)
(3 -2.49899e-15 0)
(3 -2.22158e-15 0)
(3 -1.39131e-15 0)
(3 -7.48488e-16 0)
(3 7.56585e-16 0)
(3 2.38925e-15 0)
(3 2.86126e-15 0)
(3 2.22457e-15 0)
(3 1.89093e-15 0)
(3 1.72896e-15 0)
(3 1.00924e-15 0)
(3 7.64024e-17 0)
(3 -3.41712e-16 0)
(3 -3.10776e-16 0)
(3 -7.73094e-16 0)
(3 -1.67055e-15 0)
(3 -1.6719e-15 0)
(3 -1.56001e-15 0)
(3 -1.38046e-15 0)
(3 -1.26338e-15 0)
(3 -6.7464e-16 0)
(3 -7.00417e-16 0)
(3 -4.37018e-16 0)
(3 -4.39261e-16 0)
(3 1.27109e-16 0)
(3 1.09872e-15 0)
(3 1.71649e-15 0)
(3 1.58658e-15 0)
(3 3.94941e-16 0)
(3 2.94434e-16 0)
(3 5.44905e-16 0)
(3 1.22845e-15 0)
(3 1.73316e-15 0)
(3 1.66906e-15 0)
(3 1.78189e-15 0)
(3 2.32767e-15 0)
(3 2.47105e-15 0)
(3 2.45333e-15 0)
(3 2.09604e-15 0)
(3 2.13717e-15 0)
(3 1.99862e-15 0)
(3 -4.89084e-17 0)
(3 -7.65341e-16 0)
(3 -1.07197e-15 0)
(3 -2.16989e-15 0)
(3 -3.19003e-15 0)
(3 -2.83962e-15 0)
(3 -3.01522e-15 0)
(3 -3.2446e-15 0)
(3 -3.66412e-15 0)
(3 -3.06167e-15 0)
(3 -3.12209e-15 0)
(3 -3.2444e-15 0)
(3 -2.34935e-15 0)
(3 -1.70699e-15 0)
(3 -2.33419e-15 0)
(3 -2.8514e-15 0)
(3 -2.67243e-15 0)
(3 -1.00185e-15 0)
(3 -8.49199e-16 0)
(3 -1.79361e-15 0)
(3 -2.28635e-15 0)
(3 -1.6448e-15 0)
(3 -1.44767e-17 0)
(3 2.2098e-16 0)
(3 -4.40553e-16 0)
(3 -9.75643e-16 0)
(3 1.87877e-16 0)
(3 2.18739e-16 0)
(3 -1.74378e-16 0)
(3 -9.96332e-17 0)
(3 6.4162e-17 0)
(3 5.50822e-16 0)
(3 7.40754e-16 0)
(3 7.23306e-16 0)
(3 6.82899e-16 0)
(3 -5.89243e-17 0)
(3 -1.11312e-15 0)
(3 -1.04475e-15 0)
(3 -1.20805e-15 0)
(3 -5.88108e-16 0)
(3 2.62359e-17 0)
(3 5.73726e-16 0)
(3 7.16092e-16 0)
(3 3.39593e-16 0)
(3 1.43322e-16 0)
(3 -2.34073e-17 0)
(3 -7.858e-16 0)
(3 -5.76354e-16 0)
(3 -5.5712e-16 0)
(3 -3.94262e-16 0)
(3 4.68163e-16 0)
(3 1.47043e-15 0)
(3 1.2542e-15 0)
(3 2.16864e-16 0)
(3 -9.43116e-16 0)
(3 -1.00841e-15 0)
(3 -6.04799e-16 0)
(3 -7.29029e-16 0)
(3 -5.906e-16 0)
(3 -1.7709e-16 0)
(3 1.85395e-16 0)
(3 1.14673e-15 0)
(3 1.31379e-15 0)
(3 1.07988e-15 0)
(3 1.28774e-15 0)
(3 1.03183e-15 0)
(3 9.25431e-16 0)
(3 2.23498e-15 0)
(3 2.31734e-15 0)
(3 3.75862e-16 0)
(3 5.71023e-17 0)
(3 -5.36852e-16 0)
(3 -1.03723e-15 0)
(3 -9.66136e-16 0)
(3 -8.99746e-16 0)
(3 -1.79272e-16 0)
(3 3.34401e-16 0)
(3 6.08275e-16 0)
(3 1.5676e-15 0)
(3 2.62819e-15 0)
(3 2.36995e-15 0)
(3 1.70227e-15 0)
(3 6.84319e-16 0)
(3 3.86487e-16 0)
(3 8.35903e-16 0)
(3 1.47746e-15 0)
(3 1.35402e-15 0)
(3 9.80077e-16 0)
(3 2.11424e-16 0)
(3 2.81648e-16 0)
(3 1.16592e-15 0)
(3 1.77977e-15 0)
(3 2.30677e-15 0)
(3 1.82896e-15 0)
(3 6.43739e-16 0)
(3 -1.69206e-15 0)
(3 -2.48169e-15 0)
(3 -2.22901e-15 0)
(3 -1.32666e-15 0)
(3 -1.797e-15 0)
(3 -9.67921e-16 0)
(3 -6.87926e-16 0)
(3 -1.20016e-15 0)
(3 -2.08873e-15 0)
(3 -2.56242e-15 0)
(3 -2.22965e-15 0)
(3 -1.29015e-15 0)
(3 -7.84907e-16 0)
(3 -9.65073e-16 0)
(3 -1.2839e-15 0)
(3 -1.95509e-15 0)
(3 -2.9185e-15 0)
(3 -3.73307e-15 0)
(3 -3.70875e-15 0)
(3 -3.52552e-15 0)
(3 -3.80789e-15 0)
(3 -3.978e-15 0)
(3 -4.1015e-15 0)
(3 -3.82446e-15 0)
(3 -4.55351e-15 0)
(3 -2.10358e-15 0)
(3 -6.8671e-16 0)
(3 -1.53931e-16 0)
(3 -4.36275e-16 0)
(3 -3.25368e-16 0)
(3 -1.8794e-16 0)
(3 2.10898e-16 0)
(3 9.40985e-17 0)
(3 3.50458e-17 0)
(3 -1.53453e-16 0)
(3 -1.16157e-17 0)
(3 -3.06842e-16 0)
(3 -2.83466e-16 0)
(3 7.64729e-17 0)
(3 3.22122e-16 0)
(3 6.90982e-16 0)
(3 1.31832e-15 0)
(3 1.35353e-15 0)
(3 1.26154e-15 0)
(3 8.24192e-16 0)
(3 -3.33618e-16 0)
(3 -1.58492e-15 0)
(3 -2.06471e-15 0)
(3 -2.04502e-15 0)
(3 -1.56352e-15 0)
(3 -1.25337e-15 0)
(3 -4.0876e-16 0)
(3 1.47947e-15 0)
(3 7.77013e-16 0)
(3 -3.88956e-16 0)
(3 -6.41656e-16 0)
(3 2.01616e-16 0)
(3 4.11787e-16 0)
(3 -1.71538e-17 0)
(3 -4.16643e-16 0)
(3 -9.66925e-16 0)
(3 -1.77644e-15 0)
(3 -1.79233e-15 0)
(3 -1.24643e-15 0)
(3 -8.01382e-16 0)
(3 -8.82474e-16 0)
(3 -1.00721e-16 0)
(3 6.12348e-16 0)
(3 1.60056e-15 0)
(3 1.50485e-15 0)
(3 4.24222e-16 0)
(3 -4.25602e-16 0)
(3 -1.01073e-15 0)
(3 -1.79333e-15 0)
(3 -1.46069e-15 0)
(3 -9.79693e-16 0)
(3 -9.37055e-16 0)
(3 -1.76652e-16 0)
(3 6.98588e-16 0)
(3 8.37678e-16 0)
(3 8.23743e-16 0)
(3 1.06562e-15 0)
(3 1.22644e-15 0)
(3 9.94125e-16 0)
(3 1.21689e-15 0)
(3 1.87732e-15 0)
(3 2.92837e-15 0)
(3 2.84943e-15 0)
(3 2.26447e-15 0)
(3 1.11487e-15 0)
(3 1.14959e-15 0)
(3 4.64962e-16 0)
(3 6.16041e-16 0)
(3 7.02107e-16 0)
(3 -2.54151e-16 0)
(3 -1.13845e-15 0)
(3 -2.17642e-15 0)
(3 -2.62794e-15 0)
(3 -2.08919e-15 0)
(3 -1.82979e-15 0)
(3 -6.73681e-16 0)
(3 4.91218e-16 0)
(3 3.60167e-16 0)
(3 -3.32806e-16 0)
(3 -1.38989e-15 0)
(3 -1.47118e-15 0)
(3 -1.77093e-15 0)
(3 -1.91474e-16 0)
(3 5.28523e-16 0)
(3 2.03303e-16 0)
(3 -2.41438e-16 0)
(3 -8.14525e-16 0)
(3 -1.48289e-15 0)
(3 -1.89849e-15 0)
(3 -2.8414e-15 0)
(3 -2.93188e-15 0)
(3 -2.18177e-15 0)
(3 -2.37428e-15 0)
(3 -2.90423e-15 0)
(3 -3.89769e-15 0)
(3 -3.70181e-15 0)
(3 -3.27459e-15 0)
(3 -1.45958e-15 0)
(3 -6.78434e-18 0)
(3 -1.4047e-17 0)
(3 -1.02555e-17 0)
(3 -3.42269e-16 0)
(3 1.34474e-17 0)
(3 -2.77676e-17 0)
(3 -7.73003e-16 0)
(3 -9.43416e-16 0)
(3 -1.09774e-15 0)
(3 -5.88925e-16 0)
(3 -6.44624e-16 0)
(3 -1.05933e-15 0)
(3 -9.22894e-16 0)
(3 -1.13108e-15 0)
(3 -1.86224e-16 0)
(3 2.57243e-16 0)
(3 1.33188e-15 0)
(3 1.99503e-15 0)
(3 1.47941e-15 0)
(3 -5.71013e-16 0)
(3 -7.59215e-16 0)
(3 -1.21125e-15 0)
(3 -1.13986e-15 0)
(3 -1.04955e-15 0)
(3 -7.1948e-16 0)
(3 4.11453e-17 0)
(3 2.50013e-16 0)
(3 -2.9127e-16 0)
(3 -4.29136e-16 0)
(3 -4.28912e-16 0)
(3 4.70743e-16 0)
(3 1.2708e-15 0)
(3 1.10558e-15 0)
(3 3.21323e-16 0)
(3 -7.62438e-16 0)
(3 -2.10113e-15 0)
(3 -2.29534e-15 0)
(3 -1.72229e-15 0)
(3 -1.56137e-15 0)
(3 -1.15598e-15 0)
(3 -2.3285e-16 0)
(3 3.9781e-16 0)
(3 8.30263e-16 0)
(3 9.16314e-16 0)
(3 1.75526e-16 0)
(3 -1.23215e-15 0)
(3 -2.46549e-15 0)
(3 -3.05375e-15 0)
(3 -2.88307e-15 0)
(3 -2.05948e-15 0)
(3 -9.81356e-16 0)
(3 -7.64904e-16 0)
(3 -3.99071e-16 0)
(3 -4.70435e-16 0)
(3 -1.30872e-16 0)
(3 -1.8382e-16 0)
(3 3.98325e-17 0)
(3 -3.72038e-17 0)
(3 -6.06443e-17 0)
(3 -3.77138e-16 0)
(3 1.22732e-16 0)
(3 3.92471e-16 0)
(3 -4.97338e-16 0)
(3 -4.53167e-16 0)
(3 -8.99727e-16 0)
(3 -8.84994e-16 0)
(3 -7.23374e-16 0)
(3 -4.55445e-16 0)
(3 -3.06652e-16 0)
(3 -1.21289e-16 0)
(3 -1.12986e-16 0)
(3 -7.92299e-16 0)
(3 -7.27594e-16 0)
(3 -4.00805e-16 0)
(3 -3.40946e-16 0)
(3 -9.67272e-16 0)
(3 -1.02355e-15 0)
(3 -1.00419e-15 0)
(3 -1.21532e-15 0)
(3 -1.04698e-15 0)
(3 -4.53559e-16 0)
(3 -2.63112e-16 0)
(3 -6.26288e-16 0)
(3 -7.78035e-16 0)
(3 -1.08126e-15 0)
(3 -7.4352e-16 0)
(3 -5.44478e-16 0)
(3 -1.23931e-15 0)
(3 -1.43939e-15 0)
(3 -1.30027e-15 0)
(3 -8.98576e-16 0)
(3 -1.29957e-15 0)
(3 -1.75673e-15 0)
(3 -3.47844e-15 0)
(3 -4.58066e-15 0)
(3 -3.05809e-15 0)
(3 8.52453e-17 0)
(3 -4.95582e-17 0)
(3 -2.60686e-16 0)
(3 -5.25978e-16 0)
(3 -7.67077e-16 0)
(3 -8.57127e-16 0)
(3 -3.98719e-16 0)
(3 -7.48903e-17 0)
(3 -1.78501e-16 0)
(3 -5.89009e-16 0)
(3 -7.23575e-16 0)
(3 -1.28994e-15 0)
(3 -2.09031e-15 0)
(3 -2.54274e-15 0)
(3 -1.90274e-15 0)
(3 5.07493e-16 0)
(3 1.24722e-15 0)
(3 1.65076e-15 0)
(3 1.91785e-15 0)
(3 1.73177e-15 0)
(3 3.50016e-16 0)
(3 1.58687e-16 0)
(3 4.20948e-18 0)
(3 2.25834e-16 0)
(3 2.64286e-16 0)
(3 7.21885e-17 0)
(3 -3.01748e-17 0)
(3 6.81921e-16 0)
(3 1.50727e-16 0)
(3 -2.0568e-16 0)
(3 -6.6479e-16 0)
(3 -4.30792e-16 0)
(3 -6.70634e-16 0)
(3 -8.39582e-16 0)
(3 -1.44705e-15 0)
(3 -1.8527e-15 0)
(3 -2.37833e-15 0)
(3 -2.3786e-15 0)
(3 -2.09767e-15 0)
(3 -1.2716e-15 0)
(3 -4.20013e-16 0)
(3 -3.72272e-17 0)
(3 1.97301e-16 0)
(3 7.30636e-17 0)
(3 -2.78185e-16 0)
(3 -6.18918e-16 0)
(3 3.20703e-16 0)
(3 -1.20521e-16 0)
(3 -1.34799e-15 0)
(3 -1.47231e-15 0)
(3 -1.19756e-15 0)
(3 -1.25665e-15 0)
(3 -1.22963e-15 0)
(3 -1.02443e-15 0)
(3 -1.32081e-15 0)
(3 -2.02514e-15 0)
(3 -2.20231e-15 0)
(3 -1.63432e-15 0)
(3 -1.71892e-15 0)
(3 -2.49418e-15 0)
(3 -2.14438e-15 0)
(3 -1.37018e-15 0)
(3 -1.04452e-15 0)
(3 -1.07551e-15 0)
(3 4.57151e-16 0)
(3 2.34968e-16 0)
(3 -2.96328e-16 0)
(3 -1.7029e-16 0)
(3 3.42569e-16 0)
(3 3.35187e-16 0)
(3 2.46921e-17 0)
(3 -2.78542e-16 0)
(3 1.84678e-17 0)
(3 4.09333e-17 0)
(3 -6.19472e-16 0)
(3 -6.4774e-16 0)
(3 -8.46269e-16 0)
(3 -1.29502e-15 0)
(3 -1.2512e-15 0)
(3 -4.82467e-16 0)
(3 -4.48352e-16 0)
(3 -5.08929e-16 0)
(3 -9.91464e-17 0)
(3 -1.35466e-16 0)
(3 -4.87432e-16 0)
(3 -3.7558e-16 0)
(3 -3.72491e-16 0)
(3 -8.38633e-16 0)
(3 -1.57565e-15 0)
(3 -1.62522e-15 0)
(3 -7.41502e-16 0)
(3 -3.88741e-16 0)
(3 -5.3186e-16 0)
(3 -1.59228e-15 0)
(3 -2.29075e-15 0)
(3 -2.70606e-15 0)
(3 3.38194e-18 0)
(3 -9.89623e-18 0)
(3 -5.15694e-17 0)
(3 -3.99567e-17 0)
(3 1.17065e-18 0)
(3 -1.63408e-16 0)
(3 1.65195e-16 0)
(3 1.14043e-16 0)
(3 3.10626e-16 0)
(3 3.39958e-16 0)
(3 8.04626e-16 0)
(3 4.52874e-16 0)
(3 -6.8503e-16 0)
(3 -1.04054e-15 0)
(3 -1.49997e-15 0)
(3 -1.36106e-15 0)
(3 -1.59148e-15 0)
(3 -1.93357e-15 0)
(3 -1.62771e-15 0)
(3 -5.49492e-16 0)
(3 -6.25628e-16 0)
(3 -4.85515e-16 0)
(3 -3.60966e-16 0)
(3 -1.88486e-16 0)
(3 -3.11634e-16 0)
(3 -2.69767e-16 0)
(3 -1.73225e-16 0)
(3 3.36185e-16 0)
(3 2.68396e-16 0)
(3 1.29441e-15 0)
(3 -2.3518e-16 0)
(3 -1.07868e-15 0)
(3 -1.38453e-15 0)
(3 -1.24815e-15 0)
(3 -1.73658e-15 0)
(3 -2.04053e-15 0)
(3 -1.68653e-15 0)
(3 -1.45801e-15 0)
(3 -1.18588e-15 0)
(3 -4.49471e-16 0)
(3 -4.96545e-16 0)
(3 -6.88888e-16 0)
(3 -3.73635e-16 0)
(3 -2.2184e-16 0)
(3 -2.12361e-16 0)
(3 -3.62309e-18 0)
(3 7.73132e-16 0)
(3 7.1163e-16 0)
(3 -4.48715e-16 0)
(3 -2.26684e-15 0)
(3 -3.34577e-15 0)
(3 -2.7494e-15 0)
(3 -2.37206e-15 0)
(3 -2.10975e-15 0)
(3 -2.2698e-15 0)
(3 -2.44004e-15 0)
(3 -3.08243e-15 0)
(3 -3.09819e-15 0)
(3 -3.59071e-15 0)
(3 -4.25761e-15 0)
(3 -3.31937e-15 0)
(3 -1.75656e-15 0)
(3 -5.99177e-16 0)
(3 3.47048e-16 0)
(3 2.10052e-15 0)
(3 2.21438e-15 0)
(3 1.13621e-15 0)
(3 -1.0059e-16 0)
(3 -6.40114e-16 0)
(3 -1.62009e-16 0)
(3 2.29831e-16 0)
(3 1.56132e-16 0)
(3 -5.41894e-16 0)
(3 -9.22358e-16 0)
(3 -5.88437e-16 0)
(3 -7.72102e-16 0)
(3 -9.56811e-16 0)
(3 -1.34876e-15 0)
(3 -1.19569e-15 0)
(3 -1.31555e-15 0)
(3 -1.29748e-15 0)
(3 -8.10406e-16 0)
(3 -3.01688e-16 0)
(3 1.64327e-16 0)
(3 1.41439e-16 0)
(3 5.196e-16 0)
(3 8.60694e-16 0)
(3 4.26094e-16 0)
(3 -1.04657e-16 0)
(3 -1.40956e-16 0)
(3 -6.85347e-16 0)
(3 -3.96506e-16 0)
(3 -1.08701e-15 0)
(3 -1.1152e-15 0)
(3 -1.78467e-15 0)
(3 -3.43644e-15 0)
(3 9.61024e-17 0)
(3 4.91152e-16 0)
(3 4.04097e-16 0)
(3 8.49866e-17 0)
(3 -1.61544e-16 0)
(3 1.2873e-16 0)
(3 -3.36296e-16 0)
(3 -2.69542e-16 0)
(3 3.3286e-17 0)
(3 1.92153e-16 0)
(3 3.32518e-16 0)
(3 3.66451e-16 0)
(3 3.56171e-16 0)
(3 -5.55456e-16 0)
(3 -2.20839e-15 0)
(3 -4.2567e-15 0)
(3 -4.52452e-15 0)
(3 -2.68282e-15 0)
(3 -1.15041e-15 0)
(3 -4.52575e-16 0)
(3 -2.12052e-16 0)
(3 -4.4633e-16 0)
(3 -5.70687e-16 0)
(3 -1.1716e-15 0)
(3 -2.3085e-15 0)
(3 -3.58983e-15 0)
(3 -2.89799e-15 0)
(3 -1.59981e-15 0)
(3 1.06506e-16 0)
(3 1.12456e-15 0)
(3 9.05268e-16 0)
(3 6.48057e-16 0)
(3 -6.54526e-16 0)
(3 -1.56521e-15 0)
(3 -2.12894e-15 0)
(3 -2.66423e-15 0)
(3 -2.59161e-15 0)
(3 -1.89724e-15 0)
(3 -1.08608e-15 0)
(3 -1.14246e-15 0)
(3 -9.36661e-16 0)
(3 -1.19203e-15 0)
(3 -1.2905e-15 0)
(3 -1.65885e-15 0)
(3 -1.92586e-15 0)
(3 -1.29398e-15 0)
(3 -1.11029e-15 0)
(3 -8.65479e-16 0)
(3 -9.12242e-16 0)
(3 -1.31097e-15 0)
(3 -2.52837e-15 0)
(3 -2.89211e-15 0)
(3 -2.84879e-15 0)
(3 -2.94316e-15 0)
(3 -3.2304e-15 0)
(3 -3.57013e-15 0)
(3 -3.49568e-15 0)
(3 -4.14221e-15 0)
(3 -5.22819e-15 0)
(3 -5.14003e-15 0)
(3 -4.05156e-15 0)
(3 -5.89473e-16 0)
(3 5.91195e-16 0)
(3 1.89437e-15 0)
(3 1.66138e-15 0)
(3 1.12493e-15 0)
(3 5.31021e-16 0)
(3 1.01362e-16 0)
(3 -5.16563e-16 0)
(3 2.92072e-16 0)
(3 1.2007e-15 0)
(3 1.24278e-15 0)
(3 4.60778e-16 0)
(3 4.83126e-17 0)
(3 -4.81873e-16 0)
(3 -1.96428e-16 0)
(3 4.71865e-16 0)
(3 1.84489e-17 0)
(3 -5.94503e-16 0)
(3 -1.06776e-15 0)
(3 -1.20864e-15 0)
(3 -1.18846e-15 0)
(3 -8.0861e-16 0)
(3 -7.62991e-17 0)
(3 2.21873e-16 0)
(3 1.89713e-15 0)
(3 3.04224e-15 0)
(3 2.937e-15 0)
(3 2.0127e-15 0)
(3 8.17765e-16 0)
(3 -7.93743e-16 0)
(3 -1.14243e-15 0)
(3 -1.24437e-15 0)
(3 -1.46233e-15 0)
(3 -2.44401e-15 0)
(3 -2.70318e-15 0)
(3 6.55987e-17 0)
(3 -9.4256e-17 0)
(3 -5.57166e-17 0)
(3 1.05925e-16 0)
(3 -2.93812e-16 0)
(3 -5.47304e-16 0)
(3 -3.25978e-16 0)
(3 1.24946e-16 0)
(3 1.72343e-16 0)
(3 4.92907e-19 0)
(3 -9.15927e-16 0)
(3 -1.50857e-15 0)
(3 -5.1294e-16 0)
(3 -4.16466e-17 0)
(3 -6.33005e-16 0)
(3 -3.29811e-16 0)
(3 1.05755e-18 0)
(3 4.24106e-16 0)
(3 4.94794e-17 0)
(3 3.13605e-16 0)
(3 4.21122e-16 0)
(3 6.87439e-17 0)
(3 -1.16695e-15 0)
(3 -2.08239e-15 0)
(3 -2.45356e-15 0)
(3 -3.63003e-15 0)
(3 -3.7619e-15 0)
(3 -2.24222e-15 0)
(3 -6.86335e-16 0)
(3 -4.99741e-16 0)
(3 -5.01122e-16 0)
(3 -2.32049e-16 0)
(3 -1.76678e-16 0)
(3 -8.38479e-16 0)
(3 -8.78983e-16 0)
(3 -7.26683e-16 0)
(3 -1.15023e-15 0)
(3 -1.51069e-15 0)
(3 -1.45946e-15 0)
(3 -1.20599e-15 0)
(3 -1.30727e-15 0)
(3 -1.74554e-15 0)
(3 -1.6589e-15 0)
(3 -1.26379e-15 0)
(3 -1.10109e-15 0)
(3 -3.33548e-16 0)
(3 -6.94342e-17 0)
(3 1.44034e-16 0)
(3 6.02788e-16 0)
(3 6.17912e-16 0)