/*--------------------------------*- C++ -*----------------------------------*\
  =========                 |
  \\      /  F ield         | OpenFOAM: The Open Source CFD Toolbox
   \\    /   O peration     | Website:  https://openfoam.org
    \\  /    A nd           | Version:  7
     \\/     M anipulation  |
\*---------------------------------------------------------------------------*/
FoamFile
{
    version     2.0;
    format      ascii;
    class       volVectorField;
    location    "0.7";
    object      U;
}
// * * * * * * * * * * * * * * * * * * * * * * * * * * * * * * * * * * * * * //

dimensions      [0 1 -1 0 0 0 0];

internalField   nonuniform List<vector> 
73728
(
(3 -1.3476e-17 0)
(3 2.80684e-17 0)
(3 9.73749e-17 0)
(3 5.49186e-17 0)
(3 -2.14073e-16 0)
(3 -1.84285e-16 0)
(3 -3.59775e-16 0)
(3 -2.83605e-16 0)
(3 3.53291e-16 0)
(3 7.81818e-16 0)
(3 4.6201e-16 0)
(3 5.28903e-16 0)
(3 5.52648e-16 0)
(3 8.04693e-16 0)
(3 9.59134e-16 0)
(3 4.20521e-16 0)
(3 -2.78334e-16 0)
(3 -9.335e-16 0)
(3 -1.43933e-15 0)
(3 -1.37793e-15 0)
(3 -8.1261e-16 0)
(3 -3.78904e-16 0)
(3 -1.54074e-16 0)
(3 -2.23121e-16 0)
(3 -5.95098e-17 0)
(3 7.76591e-17 0)
(3 1.02228e-15 0)
(3 1.99367e-15 0)
(3 9.96815e-16 0)
(3 1.15321e-16 0)
(3 -7.54106e-16 0)
(3 2.67397e-16 0)
(3 4.87426e-16 0)
(3 4.06558e-16 0)
(3 5.06796e-16 0)
(3 9.71849e-16 0)
(3 1.47839e-15 0)
(3 1.46927e-15 0)
(3 1.25123e-15 0)
(3 1.31193e-15 0)
(3 1.50663e-15 0)
(3 1.61519e-15 0)
(3 1.95415e-15 0)
(3 2.17401e-15 0)
(3 1.50044e-15 0)
(3 9.77067e-16 0)
(3 1.163e-15 0)
(3 6.5679e-16 0)
(3 4.5553e-16 0)
(3 -6.62302e-16 0)
(3 -9.42121e-16 0)
(3 -7.54309e-16 0)
(3 -6.98659e-16 0)
(3 -6.31058e-16 0)
(3 -8.94926e-16 0)
(3 -1.19285e-15 0)
(3 -8.46093e-16 0)
(3 -5.65612e-16 0)
(3 -6.69277e-16 0)
(3 -1.25024e-15 0)
(3 -9.04605e-16 0)
(3 -2.61814e-16 0)
(3 4.66513e-16 0)
(3 6.09739e-16 0)
(3 8.16005e-16 0)
(3 1.46596e-15 0)
(3 1.67863e-15 0)
(3 3.52576e-15 0)
(3 4.51155e-15 0)
(3 1.45295e-15 0)
(3 4.67893e-16 0)
(3 -4.35231e-16 0)
(3 -2.43153e-15 0)
(3 -2.38297e-15 0)
(3 -1.34347e-15 0)
(3 -1.42337e-15 0)
(3 -1.35767e-15 0)
(3 4.42266e-16 0)
(3 1.43342e-15 0)
(3 1.1366e-15 0)
(3 1.00809e-15 0)
(3 1.01729e-15 0)
(3 1.4814e-15 0)
(3 1.09697e-15 0)
(3 6.91907e-16 0)
(3 5.55956e-16 0)
(3 -2.58466e-18 0)
(3 -4.14054e-16 0)
(3 -1.07403e-15 0)
(3 -1.53053e-16 0)
(3 2.88109e-16 0)
(3 1.93542e-15 0)
(3 2.40091e-15 0)
(3 2.13707e-15 0)
(3 1.70404e-15 0)
(3 8.20593e-16 0)
(3 -3.78036e-17 0)
(3 -1.00259e-16 0)
(3 1.27735e-16 0)
(3 7.05777e-16 0)
(3 1.80596e-16 0)
(3 -4.9535e-16 0)
(3 -6.36156e-16 0)
(3 -4.63113e-16 0)
(3 1.72082e-16 0)
(3 1.28601e-15 0)
(3 1.39315e-15 0)
(3 1.17821e-15 0)
(3 7.5323e-16 0)
(3 1.16184e-15 0)
(3 1.1128e-15 0)
(3 5.97522e-16 0)
(3 4.64537e-17 0)
(3 -4.68706e-16 0)
(3 -7.08786e-16 0)
(3 -3.79649e-16 0)
(3 -5.16409e-16 0)
(3 -9.41229e-16 0)
(3 -1.16684e-15 0)
(3 -1.55919e-15 0)
(3 -1.41159e-15 0)
(3 -5.87794e-16 0)
(3 1.11946e-15 0)
(3 1.83171e-15 0)
(3 1.6747e-15 0)
(3 -2.47154e-16 0)
(3 -1.80008e-15 0)
(3 -1.44328e-15 0)
(3 -9.103e-16 0)
(3 -8.59999e-16 0)
(3 -8.91294e-16 0)
(3 -2.85694e-16 0)
(3 7.17772e-16 0)
(3 1.00841e-15 0)
(3 4.06874e-16 0)
(3 4.84425e-16 0)
(3 1.09756e-15 0)
(3 1.95081e-15 0)
(3 2.23959e-15 0)
(3 2.38696e-15 0)
(3 1.74563e-15 0)
(3 1.25195e-15 0)
(3 1.28193e-15 0)
(3 7.45054e-17 0)
(3 -4.17959e-16 0)
(3 -1.15993e-15 0)
(3 -1.99828e-15 0)
(3 -2.21103e-15 0)
(3 -2.40442e-15 0)
(3 -2.2686e-15 0)
(3 -1.92563e-15 0)
(3 -2.17747e-15 0)
(3 -1.97849e-15 0)
(3 -1.48068e-15 0)
(3 -1.11526e-15 0)
(3 -1.22795e-15 0)
(3 -1.10694e-15 0)
(3 -5.95635e-16 0)
(3 -6.72554e-17 0)
(3 -4.05816e-16 0)
(3 -3.6205e-16 0)
(3 1.27783e-16 0)
(3 1.48233e-16 0)
(3 6.04612e-16 0)
(3 1.13294e-15 0)
(3 -4.73373e-16 0)
(3 -5.14502e-15 0)
(3 -6.85909e-15 0)
(3 -7.85906e-15 0)
(3 -6.82306e-15 0)
(3 -5.53712e-15 0)
(3 -4.2599e-15 0)
(3 -3.42028e-15 0)
(3 -2.3765e-15 0)
(3 2.70999e-17 0)
(3 -2.78406e-16 0)
(3 1.03472e-16 0)
(3 5.8333e-16 0)
(3 1.65904e-15 0)
(3 1.20125e-15 0)
(3 9.47728e-16 0)
(3 4.95969e-16 0)
(3 -5.69795e-16 0)
(3 -1.18046e-15 0)
(3 -1.22615e-15 0)
(3 -1.27875e-15 0)
(3 -7.44524e-16 0)
(3 4.6766e-16 0)
(3 1.67658e-15 0)
(3 1.79753e-15 0)
(3 1.22854e-15 0)
(3 -3.18401e-16 0)
(3 7.90382e-17 0)
(3 -6.9491e-17 0)
(3 -1.36639e-16 0)
(3 5.01697e-16 0)
(3 8.30639e-16 0)
(3 3.90861e-16 0)
(3 5.97774e-16 0)
(3 5.99944e-16 0)
(3 -2.10364e-16 0)
(3 1.64756e-16 0)
(3 8.26292e-16 0)
(3 6.61041e-16 0)
(3 9.99951e-16 0)
(3 8.81915e-16 0)
(3 5.05967e-16 0)
(3 8.14449e-16 0)
(3 8.53762e-16 0)
(3 3.21373e-16 0)
(3 -4.8407e-17 0)
(3 8.3359e-18 0)
(3 -8.19652e-17 0)
(3 -1.77752e-16 0)
(3 -9.8224e-16 0)
(3 -1.47094e-15 0)
(3 -1.47932e-15 0)
(3 -2.96966e-16 0)
(3 3.38552e-16 0)
(3 3.84045e-16 0)
(3 5.32705e-16 0)
(3 -1.30095e-16 0)
(3 -3.76978e-16 0)
(3 -1.23839e-15 0)
(3 -7.28292e-16 0)
(3 -6.34444e-17 0)
(3 3.011e-16 0)
(3 5.2478e-16 0)
(3 2.35316e-16 0)
(3 1.95481e-16 0)
(3 1.13768e-16 0)
(3 1.1391e-16 0)
(3 9.73499e-16 0)
(3 1.51765e-15 0)
(3 1.96447e-15 0)
(3 1.94264e-15 0)
(3 1.75718e-15 0)
(3 1.10181e-15 0)
(3 9.76166e-16 0)
(3 4.37961e-16 0)
(3 9.80275e-17 0)
(3 7.96321e-17 0)
(3 -2.82102e-16 0)
(3 -1.1168e-15 0)
(3 -1.4611e-15 0)
(3 -1.91856e-15 0)
(3 -1.92093e-15 0)
(3 -1.25893e-15 0)
(3 -1.12616e-15 0)
(3 -1.3657e-15 0)
(3 -1.10521e-15 0)
(3 -3.81219e-16 0)
(3 5.1456e-16 0)
(3 1.60793e-15 0)
(3 1.53007e-15 0)
(3 1.51481e-15 0)
(3 2.47946e-15 0)
(3 3.64501e-15 0)
(3 3.76277e-15 0)
(3 5.74649e-15 0)
(3 6.68985e-15 0)
(3 5.85053e-15 0)
(3 4.82968e-15 0)
(3 2.69863e-15 0)
(3 7.63762e-16 0)
(3 4.59594e-16 0)
(3 1.03786e-17 0)
(3 -1.43547e-16 0)
(3 -1.69602e-17 0)
(3 6.00361e-16 0)
(3 5.91348e-16 0)
(3 5.41252e-16 0)
(3 1.11893e-15 0)
(3 1.86651e-15 0)
(3 2.12276e-15 0)
(3 2.3482e-15 0)
(3 2.57772e-15 0)
(3 2.429e-15 0)
(3 1.69258e-15 0)
(3 5.41273e-16 0)
(3 2.05919e-16 0)
(3 -6.71938e-16 0)
(3 -4.1229e-16 0)
(3 -6.63632e-16 0)
(3 8.99722e-16 0)
(3 1.45093e-15 0)
(3 1.28717e-15 0)
(3 1.56905e-15 0)
(3 8.23412e-17 0)
(3 1.57402e-16 0)
(3 -1.33155e-16 0)
(3 -1.20913e-16 0)
(3 5.98836e-16 0)
(3 1.13733e-15 0)
(3 1.14527e-15 0)
(3 2.46261e-16 0)
(3 -6.34123e-16 0)
(3 -1.33785e-15 0)
(3 -9.95315e-16 0)
(3 -7.89906e-16 0)
(3 -1.1764e-16 0)
(3 2.53477e-16 0)
(3 6.93795e-16 0)
(3 1.21408e-15 0)
(3 6.05709e-16 0)
(3 2.4414e-16 0)
(3 -4.79259e-16 0)
(3 -8.56276e-16 0)
(3 -8.2721e-16 0)
(3 -5.20214e-16 0)
(3 -6.10578e-16 0)
(3 -3.401e-16 0)
(3 5.65847e-17 0)
(3 3.02192e-16 0)
(3 2.02583e-16 0)
(3 3.70387e-16 0)
(3 5.78677e-16 0)
(3 1.09981e-15 0)
(3 1.36217e-15 0)
(3 1.54923e-15 0)
(3 1.83385e-15 0)
(3 2.26425e-15 0)
(3 3.11788e-15 0)
(3 3.25389e-15 0)
(3 2.69995e-15 0)
(3 1.62109e-15 0)
(3 1.5172e-15 0)
(3 8.79717e-16 0)
(3 1.58882e-15 0)
(3 1.31158e-15 0)
(3 1.61462e-15 0)
(3 1.62553e-15 0)
(3 1.9332e-15 0)
(3 1.4719e-15 0)
(3 8.95663e-16 0)
(3 9.71872e-16 0)
(3 9.44079e-16 0)
(3 1.26638e-16 0)
(3 -6.39589e-16 0)
(3 -2.61249e-15 0)
(3 -2.66697e-15 0)
(3 -2.65543e-15 0)
(3 -2.10604e-15 0)
(3 -1.85526e-15 0)
(3 -3.96836e-16 0)
(3 2.97821e-16 0)
(3 6.17401e-16 0)
(3 9.3434e-16 0)
(3 1.81581e-15 0)
(3 1.98236e-15 0)
(3 1.8794e-15 0)
(3 1.95944e-15 0)
(3 1.70736e-15 0)
(3 1.17289e-15 0)
(3 2.00878e-16 0)
(3 1.6737e-15 0)
(3 4.49285e-15 0)
(3 5.2793e-15 0)
(3 5.36211e-15 0)
(3 3.93914e-15 0)
(3 2.98344e-15 0)
(3 1.7819e-15 0)
(3 7.95739e-16 0)
(3 1.15945e-16 0)
(3 8.75636e-16 0)
(3 1.68717e-15 0)
(3 2.80885e-15 0)
(3 3.60048e-15 0)
(3 3.40731e-15 0)
(3 3.5999e-15 0)
(3 3.6907e-15 0)
(3 2.84123e-15 0)
(3 2.7771e-15 0)
(3 2.74955e-15 0)
(3 2.3821e-15 0)
(3 1.77888e-15 0)
(3 1.07338e-15 0)
(3 3.11716e-17 0)
(3 -1.86304e-16 0)
(3 -1.07002e-16 0)
(3 1.15435e-15 0)
(3 1.61595e-15 0)
(3 2.14298e-15 0)
(3 2.59977e-15 0)
(3 -1.83282e-16 0)
(3 -3.35718e-16 0)
(3 1.98264e-16 0)
(3 1.4513e-16 0)
(3 6.11094e-17 0)
(3 9.76046e-17 0)
(3 -1.76463e-16 0)
(3 5.13343e-18 0)
(3 -4.91236e-17 0)
(3 -1.92636e-16 0)
(3 -3.18801e-16 0)
(3 1.2729e-16 0)
(3 -2.05167e-17 0)
(3 -2.99839e-16 0)
(3 2.53491e-16 0)
(3 4.45597e-16 0)
(3 9.33581e-16 0)
(3 1.4309e-15 0)
(3 1.47879e-15 0)
(3 1.12577e-15 0)
(3 4.4592e-16 0)
(3 1.64403e-16 0)
(3 8.56067e-16 0)
(3 2.10415e-15 0)
(3 2.99459e-15 0)
(3 2.91517e-15 0)
(3 2.3081e-15 0)
(3 2.37923e-15 0)
(3 1.97069e-15 0)
(3 2.70565e-15 0)
(3 2.49647e-15 0)
(3 2.68757e-15 0)
(3 2.17652e-15 0)
(3 2.14613e-15 0)
(3 1.95086e-15 0)
(3 1.55317e-15 0)
(3 6.33095e-16 0)
(3 -1.47326e-16 0)
(3 -8.94652e-16 0)
(3 -1.28035e-15 0)
(3 -1.14832e-15 0)
(3 -1.22882e-15 0)
(3 -7.23029e-16 0)
(3 -6.6099e-16 0)
(3 -4.19971e-16 0)
(3 2.93316e-16 0)
(3 7.33173e-16 0)
(3 7.73886e-16 0)
(3 5.52647e-16 0)
(3 -1.51723e-16 0)
(3 -5.54797e-16 0)
(3 -1.66198e-15 0)
(3 -2.34667e-15 0)
(3 -2.25501e-15 0)
(3 -1.94916e-15 0)
(3 -1.96036e-15 0)
(3 -1.97773e-15 0)
(3 7.09679e-16 0)
(3 1.33492e-15 0)
(3 1.42446e-15 0)
(3 7.02439e-16 0)
(3 -1.18393e-16 0)
(3 -3.06003e-16 0)
(3 -3.40616e-16 0)
(3 -1.16455e-15 0)
(3 -1.48764e-15 0)
(3 -1.15993e-15 0)
(3 -3.33406e-16 0)
(3 8.32204e-16 0)
(3 2.33402e-15 0)
(3 2.57954e-15 0)
(3 2.40722e-15 0)
(3 2.64879e-15 0)
(3 2.90324e-15 0)
(3 3.03777e-15 0)
(3 3.56761e-15 0)
(3 4.11041e-15 0)
(3 4.55599e-15 0)
(3 4.32073e-15 0)
(3 6.20633e-15 0)
(3 6.68649e-15 0)
(3 7.3816e-15 0)
(3 6.12776e-15 0)
(3 4.25498e-15 0)
(3 3.9147e-15 0)
(3 3.15679e-15 0)
(3 3.05485e-15 0)
(3 2.94211e-15 0)
(3 2.14295e-15 0)
(3 1.57091e-15 0)
(3 4.84932e-16 0)
(3 1.04426e-15 0)
(3 2.51833e-15 0)
(3 3.00677e-15 0)
(3 3.38351e-15 0)
(3 3.13528e-15 0)
(3 1.00902e-16 0)
(3 -4.89425e-16 0)
(3 -3.86035e-16 0)
(3 -6.96228e-16 0)
(3 -6.26401e-16 0)
(3 -2.12172e-16 0)
(3 2.62442e-16 0)
(3 3.75729e-16 0)
(3 1.39858e-15 0)
(3 2.1338e-15 0)
(3 2.14439e-15 0)
(3 1.54339e-15 0)
(3 7.60543e-16 0)
(3 -1.45964e-16 0)
(3 -6.73404e-16 0)
(3 -5.49233e-16 0)
(3 2.82369e-16 0)
(3 8.3193e-16 0)
(3 1.19187e-15 0)
(3 1.01544e-15 0)
(3 8.32333e-16 0)
(3 1.11357e-15 0)
(3 1.8841e-15 0)
(3 2.69054e-15 0)
(3 3.29614e-15 0)
(3 3.36432e-15 0)
(3 3.17122e-15 0)
(3 2.84547e-15 0)
(3 3.36852e-15 0)
(3 2.48692e-15 0)
(3 2.32692e-15 0)
(3 1.67945e-15 0)
(3 1.81536e-15 0)
(3 1.48105e-15 0)
(3 8.03836e-16 0)
(3 -7.61268e-16 0)
(3 -1.7224e-15 0)
(3 -1.84824e-15 0)
(3 -1.47664e-15 0)
(3 -8.70151e-16 0)
(3 -8.82672e-16 0)
(3 -7.58213e-16 0)
(3 -2.10202e-15 0)
(3 -1.88873e-15 0)
(3 -2.11581e-15 0)
(3 -1.19362e-15 0)
(3 -7.76432e-17 0)
(3 -3.50061e-16 0)
(3 -9.4148e-16 0)
(3 1.79322e-16 0)
(3 9.24475e-16 0)
(3 1.55997e-15 0)
(3 5.1902e-16 0)
(3 -7.11026e-16 0)
(3 -1.68154e-15 0)
(3 -1.66024e-15 0)
(3 -1.31079e-15 0)
(3 -7.30529e-16 0)
(3 -3.54927e-16 0)
(3 1.83948e-17 0)
(3 -3.27981e-16 0)
(3 -8.02504e-16 0)
(3 -1.20137e-15 0)
(3 -9.55153e-16 0)
(3 -1.16885e-15 0)
(3 -7.01777e-16 0)
(3 3.30994e-16 0)
(3 1.42633e-15 0)
(3 2.04317e-15 0)
(3 2.4753e-15 0)
(3 1.84755e-15 0)
(3 2.16766e-15 0)
(3 1.89384e-15 0)
(3 2.4236e-15 0)
(3 3.33101e-15 0)
(3 4.37303e-15 0)
(3 5.7348e-15 0)
(3 7.52581e-15 0)
(3 6.79178e-15 0)
(3 5.97345e-15 0)
(3 6.36784e-15 0)
(3 5.93151e-15 0)
(3 4.41352e-15 0)
(3 3.60475e-15 0)
(3 2.93343e-15 0)
(3 2.93637e-15 0)
(3 2.27518e-15 0)
(3 1.98876e-15 0)
(3 1.31775e-15 0)
(3 1.64031e-16 0)
(3 1.05457e-16 0)
(3 -3.50138e-16 0)
(3 -3.18401e-16 0)
(3 9.13186e-16 0)
(3 2.26253e-15 0)
(3 2.15744e-15 0)
(3 -9.71986e-17 0)
(3 -2.64476e-16 0)
(3 -5.2265e-16 0)
(3 -5.23909e-16 0)
(3 -2.46093e-16 0)
(3 -1.48958e-16 0)
(3 2.99459e-16 0)
(3 2.41175e-16 0)
(3 9.07447e-16 0)
(3 7.40848e-16 0)
(3 5.4014e-16 0)
(3 1.48827e-17 0)
(3 1.92305e-17 0)
(3 7.10865e-18 0)
(3 -2.90444e-16 0)
(3 -5.97718e-16 0)
(3 -8.22128e-16 0)
(3 -1.01006e-15 0)
(3 -9.94993e-16 0)
(3 -8.94771e-16 0)
(3 -6.90263e-16 0)
(3 -3.24174e-16 0)
(3 1.35284e-16 0)
(3 3.97125e-16 0)
(3 7.41119e-16 0)
(3 1.20437e-15 0)
(3 1.81813e-15 0)
(3 2.49695e-15 0)
(3 2.92199e-15 0)
(3 1.91456e-15 0)
(3 1.41081e-15 0)
(3 1.78726e-15 0)
(3 1.82859e-15 0)
(3 1.77074e-15 0)
(3 1.39005e-15 0)
(3 8.39696e-16 0)
(3 2.80178e-16 0)
(3 1.3086e-16 0)
(3 2.77518e-16 0)
(3 1.16712e-15 0)
(3 2.00033e-15 0)
(3 1.334e-15 0)
(3 6.44258e-16 0)
(3 -8.58181e-17 0)
(3 -3.37385e-16 0)
(3 -3.29981e-16 0)
(3 -5.27875e-16 0)
(3 -6.24044e-16 0)
(3 -7.60211e-17 0)
(3 -1.76885e-16 0)
(3 4.58915e-16 0)
(3 5.31079e-16 0)
(3 3.43012e-16 0)
(3 2.01756e-16 0)
(3 -6.55367e-16 0)
(3 -8.87085e-16 0)
(3 -1.72675e-15 0)
(3 -2.15521e-15 0)
(3 -1.67679e-15 0)
(3 -7.46331e-16 0)
(3 -5.19647e-16 0)
(3 6.14894e-16 0)
(3 8.58263e-16 0)
(3 1.15689e-15 0)
(3 1.55134e-15 0)
(3 1.3424e-15 0)
(3 4.40034e-16 0)
(3 -3.27612e-16 0)
(3 -2.60008e-16 0)
(3 1.28077e-15 0)
(3 2.46081e-15 0)
(3 3.53843e-15 0)
(3 4.44517e-15 0)
(3 3.62747e-15 0)
(3 3.42133e-15 0)
(3 3.68508e-15 0)
(3 5.55832e-15 0)
(3 5.69017e-15 0)
(3 5.28767e-15 0)
(3 5.10941e-15 0)
(3 4.0994e-15 0)
(3 2.8298e-15 0)
(3 2.34507e-15 0)
(3 2.33937e-15 0)
(3 2.18505e-15 0)
(3 2.08313e-15 0)
(3 1.78891e-15 0)
(3 1.13967e-15 0)
(3 8.48116e-16 0)
(3 -1.46268e-16 0)
(3 -7.41563e-16 0)
(3 -4.51923e-16 0)
(3 6.57722e-16 0)
(3 1.76637e-15 0)
(3 1.05729e-15 0)
(3 1.04057e-15 0)
(3 -2.04122e-16 0)
(3 1.12982e-16 0)
(3 1.44828e-16 0)
(3 2.87507e-17 0)
(3 -4.45296e-16 0)
(3 -8.12382e-16 0)
(3 -8.34554e-16 0)
(3 -2.44347e-16 0)
(3 -1.7305e-16 0)
(3 -4.83576e-16 0)
(3 -4.62726e-16 0)
(3 7.27583e-17 0)
(3 3.48072e-16 0)
(3 2.97417e-16 0)
(3 -4.62245e-16 0)
(3 -1.23957e-15 0)
(3 -2.01157e-15 0)
(3 -2.32926e-15 0)
(3 -3.12098e-15 0)
(3 -2.55387e-15 0)
(3 -6.63317e-17 0)
(3 5.00991e-16 0)
(3 2.43528e-16 0)
(3 -1.47892e-16 0)
(3 -5.15635e-16 0)
(3 6.20008e-17 0)
(3 1.01474e-15 0)
(3 1.45207e-15 0)
(3 1.02577e-15 0)
(3 8.31781e-16 0)
(3 5.79917e-16 0)
(3 8.81165e-16 0)
(3 7.15502e-16 0)
(3 3.84883e-16 0)
(3 1.58079e-16 0)
(3 4.36327e-17 0)
(3 1.09215e-16 0)
(3 -2.70942e-16 0)
(3 -1.25272e-15 0)
(3 -1.22805e-15 0)
(3 -9.49764e-16 0)
(3 -3.28008e-16 0)
(3 1.97411e-16 0)
(3 -5.29408e-16 0)
(3 -4.72528e-16 0)
(3 -3.91766e-16 0)
(3 -8.62692e-16 0)
(3 -8.823e-16 0)
(3 -4.14238e-16 0)
(3 -4.61854e-16 0)
(3 -5.20712e-16 0)
(3 -1.29366e-16 0)
(3 2.50207e-18 0)
(3 4.13164e-17 0)
(3 -9.50998e-16 0)
(3 -1.64262e-15 0)
(3 -2.29082e-15 0)
(3 -1.13731e-15 0)
(3 8.76039e-16 0)
(3 2.12113e-15 0)
(3 3.522e-15 0)
(3 3.81403e-15 0)
(3 3.50409e-15 0)
(3 3.48239e-15 0)
(3 3.53835e-15 0)
(3 3.31686e-15 0)
(3 2.82489e-15 0)
(3 1.21827e-15 0)
(3 1.35169e-15 0)
(3 1.85026e-15 0)
(3 3.14687e-15 0)
(3 3.56406e-15 0)
(3 4.59632e-15 0)
(3 3.62237e-15 0)
(3 8.23663e-16 0)
(3 -5.6002e-16 0)
(3 -1.11222e-15 0)
(3 -2.38092e-15 0)
(3 -8.57832e-16 0)
(3 1.82671e-16 0)
(3 5.99717e-17 0)
(3 -8.47378e-16 0)
(3 -1.60678e-15 0)
(3 -1.38148e-15 0)
(3 -8.22116e-16 0)
(3 -4.14156e-16 0)
(3 4.82868e-16 0)
(3 7.76463e-16 0)
(3 4.10304e-16 0)
(3 1.53991e-16 0)
(3 -5.27752e-16 0)
(3 4.8723e-16 0)
(3 1.56907e-15 0)
(3 1.31566e-15 0)
(3 -1.4085e-16 0)
(3 9.80708e-16 0)
(3 2.12791e-16 0)
(3 6.53e-16 0)
(3 5.16837e-16 0)
(3 1.91681e-16 0)
(3 -2.09727e-16 0)
(3 -2.76361e-16 0)
(3 -6.54178e-16 0)
(3 -6.48421e-16 0)
(3 -7.9073e-16 0)
(3 -7.00397e-16 0)
(3 -4.71161e-16 0)
(3 -3.57875e-16 0)
(3 -6.39741e-17 0)
(3 2.6623e-16 0)
(3 1.52772e-16 0)
(3 -7.737e-16 0)
(3 -1.05667e-15 0)
(3 -1.6925e-15 0)
(3 -9.4922e-16 0)
(3 1.74181e-16 0)
(3 7.69076e-16 0)
(3 9.77616e-16 0)
(3 7.67036e-16 0)
(3 -1.07718e-16 0)
(3 -3.37458e-16 0)
(3 4.14307e-16 0)
(3 2.77377e-16 0)
(3 -1.00694e-15 0)
(3 -1.63903e-15 0)
(3 -9.94468e-16 0)
(3 5.74602e-17 0)
(3 7.53089e-17 0)
(3 9.19386e-18 0)
(3 -1.07771e-15 0)
(3 -1.21707e-15 0)
(3 -1.41855e-15 0)
(3 -1.29764e-15 0)
(3 -1.19225e-15 0)
(3 -1.54132e-15 0)
(3 -1.72658e-15 0)
(3 -1.5058e-15 0)
(3 -9.0436e-16 0)
(3 -3.70869e-16 0)
(3 -5.15262e-16 0)
(3 -3.76479e-16 0)
(3 -3.97347e-16 0)
(3 -6.55198e-16 0)
(3 -9.89123e-16 0)
(3 -1.01867e-15 0)
(3 -6.16165e-16 0)
(3 -1.74222e-16 0)
(3 2.65272e-16 0)
(3 3.15243e-16 0)
(3 5.3024e-16 0)
(3 -8.61493e-16 0)
(3 -2.34316e-15 0)
(3 -1.80852e-15 0)
(3 -5.20356e-16 0)
(3 -6.67231e-16 0)
(3 -6.0021e-16 0)
(3 -7.74423e-17 0)
(3 1.6203e-15 0)
(3 1.60376e-15 0)
(3 1.4732e-15 0)
(3 1.6048e-15 0)
(3 2.69069e-15 0)
(3 2.98175e-15 0)
(3 2.41298e-15 0)
(3 1.69137e-15 0)
(3 1.28884e-15 0)
(3 8.64252e-16 0)
(3 1.08046e-15 0)
(3 1.81603e-15 0)
(3 6.01706e-16 0)
(3 -1.73571e-15 0)
(3 -3.558e-15 0)
(3 -5.34444e-15 0)
(3 -5.51862e-15 0)
(3 -4.69115e-15 0)
(3 -3.89359e-15 0)
(3 -3.09114e-15 0)
(3 -2.81416e-15 0)
(3 -2.9917e-15 0)
(3 -2.29656e-15 0)
(3 -2.02944e-15 0)
(3 -9.78474e-16 0)
(3 -8.94366e-16 0)
(3 -9.57182e-16 0)
(3 -7.62255e-16 0)
(3 -8.11008e-17 0)
(3 7.2551e-16 0)
(3 3.53037e-16 0)
(3 -2.07348e-16 0)
(3 -8.9687e-16 0)
(3 -1.08074e-15 0)
(3 5.34519e-16 0)
(3 -2.48417e-17 0)
(3 2.29644e-17 0)
(3 -1.41431e-17 0)
(3 1.06366e-16 0)
(3 7.69738e-16 0)
(3 8.02001e-16 0)
(3 7.29337e-16 0)
(3 4.86652e-16 0)
(3 4.36697e-17 0)
(3 -5.11316e-16 0)
(3 -5.00657e-16 0)
(3 -1.30654e-15 0)
(3 -1.12737e-15 0)
(3 -6.85666e-16 0)
(3 -4.83374e-16 0)
(3 -7.27269e-16 0)
(3 -6.37432e-16 0)
(3 -5.63296e-16 0)
(3 3.31904e-16 0)
(3 2.86713e-16 0)
(3 6.71034e-17 0)
(3 -5.81955e-16 0)
(3 -8.14925e-16 0)
(3 -9.85535e-16 0)
(3 -9.35374e-16 0)
(3 -1.36232e-15 0)
(3 -2.59685e-15 0)
(3 -3.12183e-15 0)
(3 -3.01557e-15 0)
(3 -2.51523e-15 0)
(3 -1.10882e-15 0)
(3 -2.5402e-16 0)
(3 -4.42898e-16 0)
(3 -1.54639e-15 0)
(3 -2.79144e-15 0)
(3 -2.95943e-15 0)
(3 -2.73021e-15 0)
(3 -1.91292e-15 0)
(3 -1.17465e-15 0)
(3 -1.77019e-15 0)
(3 -2.15316e-15 0)
(3 -1.75076e-15 0)
(3 -6.85285e-16 0)
(3 -2.07113e-16 0)
(3 -1.4504e-16 0)
(3 -7.29183e-16 0)
(3 -8.50463e-16 0)
(3 -1.10916e-15 0)
(3 -1.82082e-15 0)
(3 -1.94369e-15 0)
(3 -1.63794e-15 0)
(3 -1.27914e-15 0)
(3 -7.96181e-16 0)
(3 2.14459e-16 0)
(3 2.14212e-16 0)
(3 -7.04375e-16 0)
(3 -1.61043e-16 0)
(3 1.11998e-15 0)
(3 1.23921e-15 0)
(3 7.57739e-16 0)
(3 -1.11919e-16 0)
(3 -3.29978e-16 0)
(3 -1.05476e-16 0)
(3 5.88732e-16 0)
(3 6.26351e-16 0)
(3 1.42221e-15 0)
(3 1.65543e-15 0)
(3 7.00417e-16 0)
(3 -1.74096e-16 0)
(3 -8.41819e-16 0)
(3 -1.39563e-15 0)
(3 -1.38751e-15 0)
(3 -8.27731e-16 0)
(3 -2.48331e-15 0)
(3 -3.81125e-15 0)
(3 -4.63326e-15 0)
(3 -5.38899e-15 0)
(3 -5.43091e-15 0)
(3 -5.90412e-15 0)
(3 -6.45057e-15 0)
(3 -4.64302e-15 0)
(3 -2.97159e-15 0)
(3 -2.05972e-15 0)
(3 -2.03417e-15 0)
(3 -2.62189e-15 0)
(3 -2.11048e-15 0)
(3 -6.16587e-16 0)
(3 -2.15351e-16 0)
(3 2.4594e-17 0)
(3 1.3292e-15 0)
(3 2.30032e-15 0)
(3 2.84366e-15 0)
(3 1.87996e-15 0)
(3 7.52893e-16 0)
(3 4.19428e-16 0)
(3 7.57523e-16 0)
(3 8.3823e-17 0)
(3 -2.48264e-16 0)
(3 -2.77606e-16 0)
(3 2.67813e-16 0)
(3 3.99661e-16 0)
(3 3.88445e-16 0)
(3 1.36949e-16 0)
(3 -1.57003e-16 0)
(3 -4.77967e-16 0)
(3 -5.32315e-16 0)
(3 -7.38056e-16 0)
(3 -3.12857e-16 0)
(3 -9.06804e-16 0)
(3 -1.13383e-15 0)
(3 -9.1611e-16 0)
(3 -5.46114e-16 0)
(3 -3.23348e-16 0)
(3 -3.57822e-16 0)
(3 -4.32813e-16 0)
(3 -5.16232e-16 0)
(3 -1.95361e-16 0)
(3 -1.88016e-16 0)
(3 -1.21695e-15 0)
(3 -1.92319e-15 0)
(3 -2.84805e-15 0)
(3 -3.88492e-15 0)
(3 -3.52896e-15 0)
(3 -2.48384e-15 0)
(3 -2.38427e-15 0)
(3 -3.07836e-15 0)
(3 -4.12655e-15 0)
(3 -3.99635e-15 0)
(3 -3.17954e-15 0)
(3 -2.84833e-15 0)
(3 -3.06503e-15 0)
(3 -2.95962e-15 0)
(3 -2.26373e-15 0)
(3 -1.06463e-15 0)
(3 -7.18124e-16 0)
(3 -6.94983e-16 0)
(3 -1.58373e-15 0)
(3 -2.05279e-15 0)
(3 -2.03694e-15 0)
(3 -8.39935e-16 0)
(3 -8.1151e-16 0)
(3 -1.40074e-15 0)
(3 -1.88338e-15 0)
(3 -2.21611e-15 0)
(3 -2.83646e-15 0)
(3 -2.89568e-15 0)
(3 -2.55468e-15 0)
(3 -1.14253e-15 0)
(3 2.32662e-16 0)
(3 1.42006e-15 0)
(3 1.88385e-15 0)
(3 1.00479e-15 0)
(3 -1.30597e-15 0)
(3 -8.20309e-17 0)
(3 9.78283e-16 0)
(3 8.49733e-16 0)
(3 4.31279e-17 0)
(3 -8.86171e-16 0)
(3 -9.15919e-16 0)
(3 -5.46761e-16 0)
(3 -6.29057e-16 0)
(3 -1.31836e-15 0)
(3 -1.4311e-15 0)
(3 -2.78054e-15 0)
(3 -3.65849e-15 0)
(3 -4.07726e-15 0)
(3 -3.67881e-15 0)
(3 -3.3056e-15 0)
(3 -3.64475e-15 0)
(3 -3.66451e-15 0)
(3 -4.08726e-15 0)
(3 -3.02462e-15 0)
(3 -3.07219e-15 0)
(3 -4.27621e-15 0)
(3 -4.66058e-15 0)
(3 -3.99402e-15 0)
(3 -3.37461e-15 0)
(3 -2.6697e-15 0)
(3 -2.4042e-15 0)
(3 -2.44016e-15 0)
(3 -1.90153e-15 0)
(3 -1.14845e-15 0)
(3 2.53324e-16 0)
(3 2.29796e-15 0)
(3 3.38889e-15 0)
(3 4.23038e-15 0)
(3 4.29227e-15 0)
(3 4.74273e-15 0)
(3 4.13099e-15 0)
(3 3.22469e-15 0)
(3 2.96422e-15 0)
(3 1.70604e-15 0)
(3 3.17011e-17 0)
(3 1.90716e-16 0)
(3 3.24653e-16 0)
(3 4.97354e-16 0)
(3 1.7205e-17 0)
(3 -3.1869e-16 0)
(3 -4.12032e-16 0)
(3 -3.91204e-16 0)
(3 -8.66024e-16 0)
(3 -1.00754e-15 0)
(3 -1.0935e-15 0)
(3 -3.4504e-16 0)
(3 -1.4463e-17 0)
(3 3.46964e-16 0)
(3 5.23452e-16 0)
(3 6.70651e-16 0)
(3 2.43161e-16 0)
(3 2.26687e-16 0)
(3 -2.58945e-16 0)
(3 -8.77441e-16 0)
(3 -1.07485e-15 0)
(3 -1.49776e-15 0)
(3 -1.86616e-15 0)
(3 -2.25481e-15 0)
(3 -2.73642e-15 0)
(3 -2.36139e-15 0)
(3 -1.65225e-15 0)
(3 -1.8769e-15 0)
(3 -2.72554e-15 0)
(3 -3.3027e-15 0)
(3 -4.52611e-15 0)
(3 -5.13238e-15 0)
(3 -4.41696e-15 0)
(3 -2.86387e-15 0)
(3 -2.04479e-15 0)
(3 -1.46195e-15 0)
(3 -1.19135e-15 0)
(3 -1.22455e-15 0)
(3 -5.26532e-16 0)
(3 1.82884e-16 0)
(3 2.40712e-17 0)
(3 -6.30123e-16 0)
(3 -5.82324e-16 0)
(3 -9.28059e-17 0)
(3 -6.16091e-16 0)
(3 -1.50065e-15 0)
(3 -1.88189e-15 0)
(3 -1.58727e-15 0)
(3 -1.532e-15 0)
(3 -4.75634e-16 0)
(3 9.38857e-16 0)
(3 1.00065e-15 0)
(3 1.67018e-15 0)
(3 1.73836e-15 0)
(3 2.68081e-15 0)
(3 2.59502e-15 0)
(3 2.23066e-15 0)
(3 -2.43244e-16 0)
(3 -2.41114e-15 0)
(3 -2.88195e-15 0)
(3 -3.37376e-15 0)
(3 -3.7671e-15 0)
(3 -3.43019e-15 0)
(3 -2.09214e-15 0)
(3 -3.79408e-16 0)
(3 -1.74424e-16 0)
(3 -1.08176e-15 0)
(3 -2.03942e-15 0)
(3 -2.77804e-15 0)
(3 -2.99248e-15 0)
(3 -2.74253e-15 0)
(3 -2.78659e-15 0)
(3 -4.30824e-15 0)
(3 -3.95934e-15 0)
(3 -1.87059e-15 0)
(3 -1.07097e-15 0)
(3 -1.08249e-15 0)
(3 -1.60206e-15 0)
(3 -2.06045e-15 0)
(3 -1.90372e-15 0)
(3 -2.54315e-15 0)
(3 -2.54211e-15 0)
(3 -1.57951e-15 0)
(3 -1.0432e-15 0)
(3 -5.27101e-16 0)
(3 1.12666e-16 0)
(3 1.94965e-15 0)
(3 3.21724e-15 0)
(3 4.54043e-15 0)
(3 5.4032e-15 0)
(3 5.44704e-15 0)
(3 5.18658e-15 0)
(3 4.74973e-15 0)
(3 2.73816e-15 0)
(3 2.04727e-15 0)
(3 1.95754e-15 0)
(3 1.11885e-17 0)
(3 -1.38357e-17 0)
(3 2.53697e-17 0)
(3 6.66574e-17 0)
(3 6.37817e-17 0)
(3 8.69436e-17 0)
(3 6.48753e-16 0)
(3 7.84073e-16 0)
(3 7.98806e-16 0)
(3 1.03218e-15 0)
(3 1.33769e-15 0)
(3 1.69858e-15 0)
(3 2.04542e-15 0)
(3 2.48065e-15 0)
(3 2.49403e-15 0)
(3 2.47227e-15 0)
(3 1.17873e-15 0)
(3 5.81902e-16 0)
(3 7.65867e-17 0)
(3 -6.9029e-16 0)
(3 -9.66982e-16 0)
(3 -8.43337e-16 0)
(3 -8.32369e-16 0)
(3 -3.97541e-16 0)
(3 -2.34859e-16 0)
(3 -7.35772e-16 0)
(3 -1.69106e-15 0)
(3 -2.83387e-15 0)
(3 -3.57998e-15 0)
(3 -4.0856e-15 0)
(3 -3.99945e-15 0)
(3 -3.57298e-15 0)
(3 -3.48748e-15 0)
(3 -2.33546e-15 0)
(3 -1.2973e-15 0)
(3 -8.93977e-16 0)
(3 -1.14887e-15 0)
(3 -9.43524e-16 0)
(3 -3.17903e-16 0)
(3 -1.46329e-16 0)
(3 -6.00447e-16 0)
(3 -6.65113e-16 0)
(3 -1.11014e-15 0)
(3 -1.08238e-15 0)
(3 -5.60461e-16 0)
(3 -5.42223e-16 0)
(3 -7.13131e-16 0)
(3 -8.67076e-16 0)
(3 -5.37527e-16 0)
(3 5.3931e-16 0)
(3 5.55224e-16 0)
(3 -2.19201e-16 0)
(3 -7.70441e-16 0)
(3 -8.79307e-16 0)
(3 -8.39036e-16 0)
(3 -7.41534e-16 0)
(3 -2.08604e-16 0)
(3 -7.64363e-16 0)
(3 -1.4302e-15 0)
(3 -2.5055e-15 0)
(3 -2.91614e-15 0)
(3 -4.29805e-15 0)
(3 -3.79479e-15 0)
(3 -1.75759e-15 0)
(3 -1.18007e-15 0)
(3 -1.74932e-16 0)
(3 -1.47458e-16 0)
(3 -6.50702e-16 0)
(3 -7.51317e-16 0)
(3 -1.11845e-15 0)
(3 -1.6764e-15 0)
(3 -1.80354e-15 0)
(3 -1.87304e-15 0)
(3 -2.89074e-15 0)
(3 -2.90633e-15 0)
(3 -3.04035e-15 0)
(3 -3.74223e-15 0)
(3 -3.93063e-15 0)
(3 -4.08082e-15 0)
(3 -4.46397e-15 0)
(3 -4.40006e-15 0)
(3 -3.9596e-15 0)
(3 -3.07957e-15 0)
(3 -9.54145e-16 0)
(3 -1.88474e-16 0)
(3 1.17661e-15 0)
(3 2.06896e-15 0)
(3 2.90222e-15 0)
(3 3.94975e-15 0)
(3 5.06483e-15 0)
(3 5.49853e-15 0)
(3 4.0562e-15 0)
(3 2.34571e-15 0)
(3 -3.55855e-16 0)
(3 -8.85434e-16 0)
(3 -5.77775e-17 0)
(3 4.0044e-17 0)
(3 -9.68626e-17 0)
(3 -2.26402e-16 0)
(3 -2.18199e-16 0)
(3 -1.74826e-16 0)
(3 2.84879e-16 0)
(3 8.2244e-16 0)
(3 1.11328e-15 0)
(3 2.02065e-15 0)
(3 2.75303e-15 0)
(3 3.22639e-15 0)
(3 3.78842e-15 0)
(3 3.71528e-15 0)
(3 3.53527e-15 0)
(3 2.97049e-15 0)
(3 2.87248e-15 0)
(3 3.15149e-15 0)
(3 2.80785e-15 0)
(3 1.29859e-15 0)
(3 4.76324e-16 0)
(3 6.27412e-16 0)
(3 9.83723e-16 0)
(3 5.78109e-16 0)
(3 -1.89949e-16 0)
(3 -9.15308e-16 0)
(3 -1.51317e-15 0)
(3 -2.19925e-15 0)
(3 -3.22091e-15 0)
(3 -3.1768e-15 0)
(3 -3.33837e-15 0)
(3 -3.24424e-15 0)
(3 -3.1839e-15 0)
(3 -3.54327e-15 0)
(3 -3.09495e-15 0)
(3 -2.66148e-15 0)
(3 -1.79353e-15 0)
(3 -1.73585e-15 0)
(3 -1.86267e-15 0)
(3 -1.99254e-15 0)
(3 -1.6679e-15 0)
(3 -8.30583e-16 0)
(3 -6.85489e-16 0)
(3 -1.16352e-15 0)
(3 -1.63008e-15 0)
(3 -2.01409e-15 0)
(3 -2.1533e-15 0)
(3 -2.21754e-15 0)
(3 -9.93994e-16 0)
(3 4.82454e-16 0)
(3 8.06936e-16 0)
(3 -7.61501e-17 0)
(3 -1.1028e-15 0)
(3 -1.86864e-15 0)
(3 -2.69641e-15 0)
(3 -2.64958e-15 0)
(3 -1.3334e-15 0)
(3 -9.5909e-16 0)
(3 -1.14263e-15 0)
(3 -2.195e-15 0)
(3 -2.89414e-15 0)
(3 -1.51764e-15 0)
(3 -6.06841e-16 0)
(3 -1.16263e-15 0)
(3 -2.07864e-15 0)
(3 -2.10809e-15 0)
(3 -1.8658e-15 0)
(3 -4.94568e-16 0)
(3 8.31906e-16 0)
(3 1.5954e-15 0)
(3 1.84834e-15 0)
(3 7.74865e-16 0)
(3 5.25393e-16 0)
(3 8.2325e-16 0)
(3 -5.50727e-16 0)
(3 -1.09687e-15 0)
(3 -1.91232e-15 0)
(3 -2.94037e-15 0)
(3 -3.7979e-15 0)
(3 -4.04012e-15 0)
(3 -5.24764e-15 0)
(3 -5.31058e-15 0)
(3 -4.39764e-15 0)
(3 -3.48687e-15 0)
(3 -1.49552e-15 0)
(3 -1.52591e-16 0)
(3 5.41445e-16 0)
(3 2.09558e-15 0)
(3 3.65562e-15 0)
(3 5.11945e-15 0)
(3 5.0699e-15 0)
(3 3.53213e-15 0)
(3 1.61754e-15 0)
(3 1.35366e-16 0)
(3 1.1224e-16 0)
(3 3.2551e-17 0)
(3 6.60804e-17 0)
(3 4.85569e-17 0)
(3 5.64486e-16 0)
(3 8.52624e-16 0)
(3 5.96894e-16 0)
(3 1.45477e-16 0)
(3 2.86099e-16 0)
(3 1.04647e-15 0)
(3 1.69237e-15 0)
(3 1.98521e-15 0)
(3 2.12306e-15 0)
(3 2.12844e-15 0)
(3 2.12877e-15 0)
(3 1.74554e-15 0)
(3 1.55217e-15 0)
(3 1.58227e-15 0)
(3 1.29125e-15 0)
(3 9.92187e-16 0)
(3 1.10852e-15 0)
(3 8.6051e-16 0)
(3 6.67006e-17 0)
(3 -1.12262e-15 0)
(3 -2.08427e-15 0)
(3 -2.48939e-15 0)
(3 -2.49371e-15 0)
(3 -2.89112e-15 0)
(3 -1.93218e-15 0)
(3 -1.45496e-15 0)
(3 -1.49406e-15 0)
(3 -2.0979e-15 0)
(3 -1.98434e-15 0)
(3 -1.63006e-15 0)
(3 -2.12645e-15 0)
(3 -2.08318e-15 0)
(3 -2.55312e-15 0)
(3 -2.51146e-15 0)
(3 -1.32635e-15 0)
(3 -9.88857e-16 0)
(3 -2.55776e-15 0)
(3 -4.0059e-15 0)
(3 -3.9883e-15 0)
(3 -3.67635e-15 0)
(3 -2.80706e-15 0)
(3 -2.37772e-15 0)
(3 -2.42387e-15 0)
(3 -2.62913e-15 0)
(3 -2.67926e-15 0)
(3 -2.46167e-15 0)
(3 -1.60292e-15 0)
(3 2.17701e-16 0)
(3 -1.86196e-16 0)
(3 -1.27611e-15 0)
(3 -2.67294e-15 0)
(3 -2.9583e-15 0)
(3 -3.13496e-15 0)
(3 -2.2453e-15 0)
(3 -6.23937e-16 0)
(3 -1.25481e-17 0)
(3 -4.47247e-16 0)
(3 -8.35593e-16 0)
(3 -1.21503e-15 0)
(3 5.7955e-16 0)
(3 1.3028e-15 0)
(3 4.91369e-16 0)
(3 -1.62688e-15 0)
(3 -1.73086e-15 0)
(3 -1.07043e-15 0)
(3 1.13206e-16 0)
(3 2.34874e-15 0)
(3 3.4651e-15 0)
(3 3.66035e-15 0)
(3 3.29448e-15 0)
(3 2.69428e-15 0)
(3 2.78588e-15 0)
(3 7.66299e-16 0)
(3 7.27479e-17 0)
(3 -1.08582e-15 0)
(3 -1.44396e-15 0)
(3 -1.62e-15 0)
(3 -2.78765e-15 0)
(3 -4.06965e-15 0)
(3 -4.22485e-15 0)
(3 -2.64496e-15 0)
(3 -1.02143e-15 0)
(3 -6.72221e-16 0)
(3 6.18073e-17 0)
(3 7.52098e-16 0)
(3 1.38306e-15 0)
(3 1.64713e-15 0)
(3 2.28986e-15 0)
(3 2.58818e-15 0)
(3 1.7556e-15 0)
(3 1.61396e-16 0)
(3 -1.51211e-16 0)
(3 2.44277e-16 0)
(3 1.89113e-17 0)
(3 -2.14321e-16 0)
(3 -3.55301e-16 0)
(3 -3.39554e-16 0)
(3 -2.1887e-16 0)
(3 -6.8265e-17 0)
(3 1.37101e-16 0)
(3 2.05572e-16 0)
(3 5.62378e-16 0)
(3 8.1495e-16 0)
(3 5.81112e-16 0)
(3 4.47753e-16 0)
(3 -2.17323e-17 0)
(3 -8.16417e-16 0)
(3 -9.2419e-16 0)
(3 -1.36662e-15 0)
(3 -8.58319e-16 0)
(3 -3.57612e-16 0)
(3 -2.28703e-16 0)
(3 -5.16176e-16 0)
(3 -6.98593e-16 0)
(3 -3.57832e-16 0)
(3 -8.80494e-16 0)
(3 -1.4415e-15 0)
(3 -2.00508e-15 0)
(3 -1.92094e-15 0)
(3 -1.57551e-15 0)
(3 -1.71464e-15 0)
(3 -1.05465e-15 0)
(3 2.85649e-16 0)
(3 9.77844e-16 0)
(3 1.43593e-15 0)
(3 1.66192e-15 0)
(3 1.47714e-15 0)
(3 1.17382e-15 0)
(3 3.47243e-16 0)
(3 -1.97025e-16 0)
(3 -9.40572e-17 0)
(3 -3.78743e-16 0)
(3 -1.89477e-15 0)
(3 -2.77797e-15 0)
(3 -3.69326e-15 0)
(3 -4.68596e-15 0)
(3 -5.1957e-15 0)
(3 -3.91748e-15 0)
(3 -3.6305e-15 0)
(3 -2.58486e-15 0)
(3 -1.40372e-15 0)
(3 -1.55726e-15 0)
(3 -2.57081e-15 0)
(3 -2.76586e-15 0)
(3 -1.78581e-15 0)
(3 -1.11909e-15 0)
(3 -8.20953e-16 0)
(3 -1.8495e-15 0)
(3 -2.19101e-15 0)
(3 -1.24667e-15 0)
(3 -7.74406e-16 0)
(3 -1.48888e-16 0)
(3 4.16956e-17 0)
(3 7.41194e-16 0)
(3 1.90086e-15 0)
(3 2.50675e-15 0)
(3 2.9494e-15 0)
(3 2.10994e-15 0)
(3 1.03566e-15 0)
(3 -7.72034e-17 0)
(3 -1.73802e-16 0)
(3 2.24052e-17 0)
(3 1.25293e-15 0)
(3 2.71571e-15 0)
(3 1.79461e-15 0)
(3 7.89615e-16 0)
(3 -5.34646e-17 0)
(3 2.37977e-16 0)
(3 3.41499e-16 0)
(3 1.01128e-15 0)
(3 8.14569e-17 0)
(3 -1.10361e-15 0)
(3 -1.91987e-15 0)
(3 -9.6942e-16 0)
(3 -1.02234e-15 0)
(3 -1.68209e-15 0)
(3 -1.50993e-15 0)
(3 -9.80786e-16 0)
(3 -1.05232e-15 0)
(3 -7.80414e-16 0)
(3 -3.72368e-16 0)
(3 -1.31e-15 0)
(3 -1.16451e-15 0)
(3 -7.39639e-16 0)
(3 -9.37155e-16 0)
(3 -8.56114e-16 0)
(3 -1.11586e-15 0)
(3 -6.02506e-16 0)
(3 2.97537e-17 0)
(3 4.02734e-16 0)
(3 1.0023e-15 0)
(3 -3.21756e-16 0)
(3 -6.65e-16 0)
(3 -1.20716e-15 0)
(3 -1.20296e-15 0)
(3 -6.69012e-16 0)
(3 -4.05941e-16 0)
(3 -6.11167e-16 0)
(3 -9.41804e-16 0)
(3 -1.14616e-15 0)
(3 -1.15152e-15 0)
(3 -9.85062e-16 0)
(3 -1.28952e-15 0)
(3 -1.70477e-15 0)
(3 -2.64915e-15 0)
(3 -3.17855e-15 0)
(3 -2.47812e-15 0)
(3 -1.6581e-15 0)
(3 -1.38401e-15 0)
(3 -9.13208e-16 0)
(3 -5.12012e-16 0)
(3 -1.56846e-17 0)
(3 -1.74079e-16 0)
(3 3.53493e-17 0)
(3 1.36371e-16 0)
(3 2.40315e-16 0)
(3 1.67077e-16 0)
(3 2.32005e-16 0)
(3 1.02101e-15 0)
(3 3.03089e-15 0)
(3 4.3562e-15 0)
(3 4.47729e-15 0)
(3 3.91121e-15 0)
(3 2.90869e-15 0)
(3 1.87409e-15 0)
(3 1.11908e-15 0)
(3 -9.60702e-16 0)
(3 -2.21551e-15 0)
(3 -3.46496e-15 0)
(3 -3.33567e-15 0)
(3 -3.25681e-15 0)
(3 -3.32984e-15 0)
(3 -3.68115e-15 0)
(3 -4.20207e-15 0)
(3 -4.10214e-15 0)
(3 -4.4018e-15 0)
(3 -4.07449e-15 0)
(3 -2.68481e-15 0)
(3 -2.6155e-15 0)
(3 -3.02487e-15 0)
(3 -3.24188e-15 0)
(3 -2.62563e-15 0)
(3 -9.30093e-16 0)
(3 1.14184e-15 0)
(3 1.85935e-15 0)
(3 2.90627e-15 0)
(3 2.78388e-15 0)